# vtk DataFile Version 2.0
Unstructured Grid File
ASCII
DATASET UNSTRUCTURED_GRID
POINTS 960 double
0.0 0.0 9310.0
294.12 0.0 9310.0
294.12 0.0 9352.0
676.47 0.0 9352.0
676.47 0.0 9342.0
1176.47 0.0 9342.0
1176.47 0.0 9342.0
1970.59 0.0 9342.0
1970.59 0.0 9342.0
2441.17 0.0 9342.0
2441.17 0.0 9342.0
2764.7 0.0 9342.0
2764.7 0.0 9342.0
3117.64 0.0 9342.0
3117.64 0.0 9342.0
3705.88 0.0 9342.0
3705.88 0.0 9342.0
4323.53 0.0 9342.0
4323.53 0.0 9342.0
4764.7 0.0 9342.0
4764.7 0.0 9342.0
5191.17 0.0 9342.0
5191.17 0.0 9342.0
5617.64 0.0 9342.0
5617.64 0.0 9342.0
6058.81 0.0 9342.0
6058.81 0.0 9342.0
6411.75 0.0 9342.0
6411.75 0.0 9342.0
6823.51 0.0 9342.0
0.0 500.0 9310.0
294.12 500.0 9310.0
294.12 500.0 9352.0
676.47 500.0 9352.0
676.47 500.0 9342.0
1176.47 500.0 9342.0
1176.47 500.0 9342.0
1970.59 500.0 9342.0
1970.59 500.0 9342.0
2441.17 500.0 9342.0
2441.17 500.0 9342.0
2764.7 500.0 9342.0
2764.7 500.0 9342.0
3117.64 500.0 9342.0
3117.64 500.0 9342.0
3705.88 500.0 9342.0
3705.88 500.0 9342.0
4323.53 500.0 9342.0
4323.53 500.0 9342.0
4764.7 500.0 9342.0
4764.7 500.0 9342.0
5191.17 500.0 9342.0
5191.17 500.0 9342.0
5617.64 500.0 9342.0
5617.64 500.0 9342.0
6058.81 500.0 9342.0
6058.81 500.0 9342.0
6411.75 500.0 9342.0
6411.75 500.0 9342.0
6823.51 500.0 9342.0
0.0 500.0 9340.0
294.12 500.0 9340.0
294.12 500.0 9318.0
676.47 500.0 9318.0
676.47 500.0 9318.0
1176.47 500.0 9318.0
1176.47 500.0 9338.0
1970.59 500.0 9338.0
1970.59 500.0 9322.0
2441.17 500.0 9322.0
2441.17 500.0 9322.0
2764.7 500.0 9322.0
2764.7 500.0 9322.0
3117.64 500.0 9322.0
3117.64 500.0 9322.0
3705.88 500.0 9322.0
3705.88 500.0 9322.0
4323.53 500.0 9322.0
4323.53 500.0 9315.0
4764.7 500.0 9315.0
4764.7 500.0 9309.0
5191.17 500.0 9309.0
5191.17 500.0 9308.0
5617.64 500.0 9308.0
5617.64 500.0 9308.0
6058.81 500.0 9308.0
6058.81 500.0 9308.0
6411.75 500.0 9308.0
6411.75 500.0 9308.0
6823.51 500.0 9308.0
0.0 705.88 9340.0
294.12 705.88 9340.0
294.12 705.88 9318.0
676.47 705.88 9318.0
676.47 705.88 9318.0
1176.47 705.88 9318.0
1176.47 705.88 9338.0
1970.59 705.88 9338.0
1970.59 705.88 9322.0
2441.17 705.88 9322.0
2441.17 705.88 9322.0
2764.7 705.88 9322.0
2764.7 705.88 9322.0
3117.64 705.88 9322.0
3117.64 705.88 9322.0
3705.88 705.88 9322.0
3705.88 705.88 9322.0
4323.53 705.88 9322.0
4323.53 705.88 9315.0
4764.7 705.88 9315.0
4764.7 705.88 9309.0
5191.17 705.88 9309.0
5191.17 705.88 9308.0
5617.64 705.88 9308.0
5617.64 705.88 9308.0
6058.81 705.88 9308.0
6058.81 705.88 9308.0
6411.75 705.88 9308.0
6411.75 705.88 9308.0
6823.51 705.88 9308.0
0.0 705.88 9340.0
294.12 705.88 9340.0
294.12 705.88 9321.0
676.47 705.88 9321.0
676.47 705.88 9317.0
1176.47 705.88 9317.0
1176.47 705.88 9325.0
1970.59 705.88 9325.0
1970.59 705.88 9325.0
2441.17 705.88 9325.0
2441.17 705.88 9315.0
2764.7 705.88 9315.0
2764.7 705.88 9302.0
3117.64 705.88 9302.0
3117.64 705.88 9300.0
3705.88 705.88 9300.0
3705.88 705.88 9300.0
4323.53 705.88 9300.0
4323.53 705.88 9298.0
4764.7 705.88 9298.0
4764.7 705.88 9298.0
5191.17 705.88 9298.0
5191.17 705.88 9295.0
5617.64 705.88 9295.0
5617.64 705.88 9298.0
6058.81 705.88 9298.0
6058.81 705.88 9302.0
6411.75 705.88 9302.0
6411.75 705.88 9308.0
6823.51 705.88 9308.0
0.0 1088.23 9340.0
294.12 1088.23 9340.0
294.12 1088.23 9321.0
676.47 1088.23 9321.0
676.47 1088.23 9317.0
1176.47 1088.23 9317.0
1176.47 1088.23 9325.0
1970.59 1088.23 9325.0
1970.59 1088.23 9325.0
2441.17 1088.23 9325.0
2441.17 1088.23 9315.0
2764.7 1088.23 9315.0
2764.7 1088.23 9302.0
3117.64 1088.23 9302.0
3117.64 1088.23 9300.0
3705.88 1088.23 9300.0
3705.88 1088.23 9300.0
4323.53 1088.23 9300.0
4323.53 1088.23 9298.0
4764.7 1088.23 9298.0
4764.7 1088.23 9298.0
5191.17 1088.23 9298.0
5191.17 1088.23 9295.0
5617.64 1088.23 9295.0
5617.64 1088.23 9298.0
6058.81 1088.23 9298.0
6058.81 1088.23 9302.0
6411.75 1088.23 9302.0
6411.75 1088.23 9308.0
6823.51 1088.23 9308.0
0.0 1088.23 9342.0
294.12 1088.23 9342.0
294.12 1088.23 9320.0
676.47 1088.23 9320.0
676.47 1088.23 9320.0
1176.47 1088.23 9320.0
1176.47 1088.23 9310.0
1970.59 1088.23 9310.0
1970.59 1088.23 9315.0
2441.17 1088.23 9315.0
2441.17 1088.23 9317.0
2764.7 1088.23 9317.0
2764.7 1088.23 9310.0
3117.64 1088.23 9310.0
3117.64 1088.23 9280.0
3705.88 1088.23 9280.0
3705.88 1088.23 9298.0
4323.53 1088.23 9298.0
4323.53 1088.23 9290.0
4764.7 1088.23 9290.0
4764.7 1088.23 9290.0
5191.17 1088.23 9290.0
5191.17 1088.23 9294.0
5617.64 1088.23 9294.0
5617.64 1088.23 9292.0
6058.81 1088.23 9292.0
6058.81 1088.23 9300.0
6411.75 1088.23 9300.0
6411.75 1088.23 9300.0
6823.51 1088.23 9300.0
0.0 1617.64 9342.0
294.12 1617.64 9342.0
294.12 1617.64 9320.0
676.47 1617.64 9320.0
676.47 1617.64 9320.0
1176.47 1617.64 9320.0
1176.47 1617.64 9310.0
1970.59 1617.64 9310.0
1970.59 1617.64 9315.0
2441.17 1617.64 9315.0
2441.17 1617.64 9317.0
2764.7 1617.64 9317.0
2764.7 1617.64 9310.0
3117.64 1617.64 9310.0
3117.64 1617.64 9280.0
3705.88 1617.64 9280.0
3705.88 1617.64 9298.0
4323.53 1617.64 9298.0
4323.53 1617.64 9290.0
4764.7 1617.64 9290.0
4764.7 1617.64 9290.0
5191.17 1617.64 9290.0
5191.17 1617.64 9294.0
5617.64 1617.64 9294.0
5617.64 1617.64 9292.0
6058.81 1617.64 9292.0
6058.81 1617.64 9300.0
6411.75 1617.64 9300.0
6411.75 1617.64 9300.0
6823.51 1617.64 9300.0
0.0 1617.64 9340.0
294.12 1617.64 9340.0
294.12 1617.64 9340.0
676.47 1617.64 9340.0
676.47 1617.64 9335.0
1176.47 1617.64 9335.0
1176.47 1617.64 9320.0
1970.59 1617.64 9320.0
1970.59 1617.64 9295.0
2441.17 1617.64 9295.0
2441.17 1617.64 9295.0
2764.7 1617.64 9295.0
2764.7 1617.64 9298.0
3117.64 1617.64 9298.0
3117.64 1617.64 9290.0
3705.88 1617.64 9290.0
3705.88 1617.64 9294.0
4323.53 1617.64 9294.0
4323.53 1617.64 9297.0
4764.7 1617.64 9297.0
4764.7 1617.64 9295.0
5191.17 1617.64 9295.0
5191.17 1617.64 9291.0
5617.64 1617.64 9291.0
5617.64 1617.64 9291.0
6058.81 1617.64 9291.0
6058.81 1617.64 9291.0
6411.75 1617.64 9291.0
6411.75 1617.64 9291.0
6823.51 1617.64 9291.0
0.0 2058.81 9340.0
294.12 2058.81 9340.0
294.12 2058.81 9340.0
676.47 2058.81 9340.0
676.47 2058.81 9335.0
1176.47 2058.81 9335.0
1176.47 2058.81 9320.0
1970.59 2058.81 9320.0
1970.59 2058.81 9295.0
2441.17 2058.81 9295.0
2441.17 2058.81 9295.0
2764.7 2058.81 9295.0
2764.7 2058.81 9298.0
3117.64 2058.81 9298.0
3117.64 2058.81 9290.0
3705.88 2058.81 9290.0
3705.88 2058.81 9294.0
4323.53 2058.81 9294.0
4323.53 2058.81 9297.0
4764.7 2058.81 9297.0
4764.7 2058.81 9295.0
5191.17 2058.81 9295.0
5191.17 2058.81 9291.0
5617.64 2058.81 9291.0
5617.64 2058.81 9291.0
6058.81 2058.81 9291.0
6058.81 2058.81 9291.0
6411.75 2058.81 9291.0
6411.75 2058.81 9291.0
6823.51 2058.81 9291.0
0.0 2058.81 9290.0
294.12 2058.81 9290.0
294.12 2058.81 9290.0
676.47 2058.81 9290.0
676.47 2058.81 9290.0
1176.47 2058.81 9290.0
1176.47 2058.81 9290.0
1970.59 2058.81 9290.0
1970.59 2058.81 9290.0
2441.17 2058.81 9290.0
2441.17 2058.81 9290.0
2764.7 2058.81 9290.0
2764.7 2058.81 9290.0
3117.64 2058.81 9290.0
3117.64 2058.81 9286.0
3705.88 2058.81 9286.0
3705.88 2058.81 9295.0
4323.53 2058.81 9295.0
4323.53 2058.81 9288.0
4764.7 2058.81 9288.0
4764.7 2058.81 9288.0
5191.17 2058.81 9288.0
5191.17 2058.81 9288.0
5617.64 2058.81 9288.0
5617.64 2058.81 9288.0
6058.81 2058.81 9288.0
6058.81 2058.81 9288.0
6411.75 2058.81 9288.0
6411.75 2058.81 9288.0
6823.51 2058.81 9288.0
0.0 2499.98 9290.0
294.12 2499.98 9290.0
294.12 2499.98 9290.0
676.47 2499.98 9290.0
676.47 2499.98 9290.0
1176.47 2499.98 9290.0
1176.47 2499.98 9290.0
1970.59 2499.98 9290.0
1970.59 2499.98 9290.0
2441.17 2499.98 9290.0
2441.17 2499.98 9290.0
2764.7 2499.98 9290.0
2764.7 2499.98 9290.0
3117.64 2499.98 9290.0
3117.64 2499.98 9286.0
3705.88 2499.98 9286.0
3705.88 2499.98 9295.0
4323.53 2499.98 9295.0
4323.53 2499.98 9288.0
4764.7 2499.98 9288.0
4764.7 2499.98 9288.0
5191.17 2499.98 9288.0
5191.17 2499.98 9288.0
5617.64 2499.98 9288.0
5617.64 2499.98 9288.0
6058.81 2499.98 9288.0
6058.81 2499.98 9288.0
6411.75 2499.98 9288.0
6411.75 2499.98 9288.0
6823.51 2499.98 9288.0
0.0 2499.98 9296.0
294.12 2499.98 9296.0
294.12 2499.98 9296.0
676.47 2499.98 9296.0
676.47 2499.98 9296.0
1176.47 2499.98 9296.0
1176.47 2499.98 9296.0
1970.59 2499.98 9296.0
1970.59 2499.98 9296.0
2441.17 2499.98 9296.0
2441.17 2499.98 9296.0
2764.7 2499.98 9296.0
2764.7 2499.98 9296.0
3117.64 2499.98 9296.0
3117.64 2499.98 9296.0
3705.88 2499.98 9296.0
3705.88 2499.98 9298.0
4323.53 2499.98 9298.0
4323.53 2499.98 9282.0
4764.7 2499.98 9282.0
4764.7 2499.98 9295.0
5191.17 2499.98 9295.0
5191.17 2499.98 9295.0
5617.64 2499.98 9295.0
5617.64 2499.98 9295.0
6058.81 2499.98 9295.0
6058.81 2499.98 9295.0
6411.75 2499.98 9295.0
6411.75 2499.98 9295.0
6823.51 2499.98 9295.0
0.0 2941.15 9296.0
294.12 2941.15 9296.0
294.12 2941.15 9296.0
676.47 2941.15 9296.0
676.47 2941.15 9296.0
1176.47 2941.15 9296.0
1176.47 2941.15 9296.0
1970.59 2941.15 9296.0
1970.59 2941.15 9296.0
2441.17 2941.15 9296.0
2441.17 2941.15 9296.0
2764.7 2941.15 9296.0
2764.7 2941.15 9296.0
3117.64 2941.15 9296.0
3117.64 2941.15 9296.0
3705.88 2941.15 9296.0
3705.88 2941.15 9298.0
4323.53 2941.15 9298.0
4323.53 2941.15 9282.0
4764.7 2941.15 9282.0
4764.7 2941.15 9295.0
5191.17 2941.15 9295.0
5191.17 2941.15 9295.0
5617.64 2941.15 9295.0
5617.64 2941.15 9295.0
6058.81 2941.15 9295.0
6058.81 2941.15 9295.0
6411.75 2941.15 9295.0
6411.75 2941.15 9295.0
6823.51 2941.15 9295.0
0.0 2941.15 9310.0
294.12 2941.15 9310.0
294.12 2941.15 9310.0
676.47 2941.15 9310.0
676.47 2941.15 9310.0
1176.47 2941.15 9310.0
1176.47 2941.15 9310.0
1970.59 2941.15 9310.0
1970.59 2941.15 9310.0
2441.17 2941.15 9310.0
2441.17 2941.15 9310.0
2764.7 2941.15 9310.0
2764.7 2941.15 9310.0
3117.64 2941.15 9310.0
3117.64 2941.15 9310.0
3705.88 2941.15 9310.0
3705.88 2941.15 9288.0
4323.53 2941.15 9288.0
4323.53 2941.15 9279.0
4764.7 2941.15 9279.0
4764.7 2941.15 9279.0
5191.17 2941.15 9279.0
5191.17 2941.15 9279.0
5617.64 2941.15 9279.0
5617.64 2941.15 9279.0
6058.81 2941.15 9279.0
6058.81 2941.15 9279.0
6411.75 2941.15 9279.0
6411.75 2941.15 9279.0
6823.51 2941.15 9279.0
0.0 3294.09 9310.0
294.12 3294.09 9310.0
294.12 3294.09 9310.0
676.47 3294.09 9310.0
676.47 3294.09 9310.0
1176.47 3294.09 9310.0
1176.47 3294.09 9310.0
1970.59 3294.09 9310.0
1970.59 3294.09 9310.0
2441.17 3294.09 9310.0
2441.17 3294.09 9310.0
2764.7 3294.09 9310.0
2764.7 3294.09 9310.0
3117.64 3294.09 9310.0
3117.64 3294.09 9310.0
3705.88 3294.09 9310.0
3705.88 3294.09 9288.0
4323.53 3294.09 9288.0
4323.53 3294.09 9279.0
4764.7 3294.09 9279.0
4764.7 3294.09 9279.0
5191.17 3294.09 9279.0
5191.17 3294.09 9279.0
5617.64 3294.09 9279.0
5617.64 3294.09 9279.0
6058.81 3294.09 9279.0
6058.81 3294.09 9279.0
6411.75 3294.09 9279.0
6411.75 3294.09 9279.0
6823.51 3294.09 9279.0
0.0 0.0 9315.0
294.12 0.0 9315.0
294.12 0.0 9364.0
676.47 0.0 9364.0
676.47 0.0 9353.0
1176.47 0.0 9353.0
1176.47 0.0 9353.0
1970.59 0.0 9353.0
1970.59 0.0 9353.0
2441.17 0.0 9353.0
2441.17 0.0 9353.0
2764.7 0.0 9353.0
2764.7 0.0 9353.0
3117.64 0.0 9353.0
3117.64 0.0 9353.0
3705.88 0.0 9353.0
3705.88 0.0 9353.0
4323.53 0.0 9353.0
4323.53 0.0 9353.0
4764.7 0.0 9353.0
4764.7 0.0 9353.0
5191.17 0.0 9353.0
5191.17 0.0 9353.0
5617.64 0.0 9353.0
5617.64 0.0 9353.0
6058.81 0.0 9353.0
6058.81 0.0 9353.0
6411.75 0.0 9353.0
6411.75 0.0 9353.0
6823.51 0.0 9353.0
0.0 500.0 9315.0
294.12 500.0 9315.0
294.12 500.0 9364.0
676.47 500.0 9364.0
676.47 500.0 9353.0
1176.47 500.0 9353.0
1176.47 500.0 9353.0
1970.59 500.0 9353.0
1970.59 500.0 9353.0
2441.17 500.0 9353.0
2441.17 500.0 9353.0
2764.7 500.0 9353.0
2764.7 500.0 9353.0
3117.64 500.0 9353.0
3117.64 500.0 9353.0
3705.88 500.0 9353.0
3705.88 500.0 9353.0
4323.53 500.0 9353.0
4323.53 500.0 9353.0
4764.7 500.0 9353.0
4764.7 500.0 9353.0
5191.17 500.0 9353.0
5191.17 500.0 9353.0
5617.64 500.0 9353.0
5617.64 500.0 9353.0
6058.81 500.0 9353.0
6058.81 500.0 9353.0
6411.75 500.0 9353.0
6411.75 500.0 9353.0
6823.51 500.0 9353.0
0.0 500.0 9350.0
294.12 500.0 9350.0
294.12 500.0 9328.0
676.47 500.0 9328.0
676.47 500.0 9350.0
1176.47 500.0 9350.0
1176.47 500.0 9352.0
1970.59 500.0 9352.0
1970.59 500.0 9323.0
2441.17 500.0 9323.0
2441.17 500.0 9323.0
2764.7 500.0 9323.0
2764.7 500.0 9323.0
3117.64 500.0 9323.0
3117.64 500.0 9323.0
3705.88 500.0 9323.0
3705.88 500.0 9323.0
4323.53 500.0 9323.0
4323.53 500.0 9319.0
4764.7 500.0 9319.0
4764.7 500.0 9314.5
5191.17 500.0 9314.5
5191.17 500.0 9310.0
5617.64 500.0 9310.0
5617.64 500.0 9310.0
6058.81 500.0 9310.0
6058.81 500.0 9310.0
6411.75 500.0 9310.0
6411.75 500.0 9310.0
6823.51 500.0 9310.0
0.0 705.88 9350.0
294.12 705.88 9350.0
294.12 705.88 9328.0
676.47 705.88 9328.0
676.47 705.88 9350.0
1176.47 705.88 9350.0
1176.47 705.88 9352.0
1970.59 705.88 9352.0
1970.59 705.88 9323.0
2441.17 705.88 9323.0
2441.17 705.88 9323.0
2764.7 705.88 9323.0
2764.7 705.88 9323.0
3117.64 705.88 9323.0
3117.64 705.88 9323.0
3705.88 705.88 9323.0
3705.88 705.88 9323.0
4323.53 705.88 9323.0
4323.53 705.88 9319.0
4764.7 705.88 9319.0
4764.7 705.88 9314.5
5191.17 705.88 9314.5
5191.17 705.88 9310.0
5617.64 705.88 9310.0
5617.64 705.88 9310.0
6058.81 705.88 9310.0
6058.81 705.88 9310.0
6411.75 705.88 9310.0
6411.75 705.88 9310.0
6823.51 705.88 9310.0
0.0 705.88 9350.0
294.12 705.88 9350.0
294.12 705.88 9363.0
676.47 705.88 9363.0
676.47 705.88 9357.0
1176.47 705.88 9357.0
1176.47 705.88 9353.0
1970.59 705.88 9353.0
1970.59 705.88 9343.0
2441.17 705.88 9343.0
2441.17 705.88 9330.0
2764.7 705.88 9330.0
2764.7 705.88 9315.0
3117.64 705.88 9315.0
3117.64 705.88 9312.0
3705.88 705.88 9312.0
3705.88 705.88 9312.0
4323.53 705.88 9312.0
4323.53 705.88 9313.0
4764.7 705.88 9313.0
4764.7 705.88 9311.0
5191.17 705.88 9311.0
5191.17 705.88 9303.0
5617.64 705.88 9303.0
5617.64 705.88 9308.0
6058.81 705.88 9308.0
6058.81 705.88 9307.0
6411.75 705.88 9307.0
6411.75 705.88 9311.0
6823.51 705.88 9311.0
0.0 1088.23 9350.0
294.12 1088.23 9350.0
294.12 1088.23 9363.0
676.47 1088.23 9363.0
676.47 1088.23 9357.0
1176.47 1088.23 9357.0
1176.47 1088.23 9353.0
1970.59 1088.23 9353.0
1970.59 1088.23 9343.0
2441.17 1088.23 9343.0
2441.17 1088.23 9330.0
2764.7 1088.23 9330.0
2764.7 1088.23 9315.0
3117.64 1088.23 9315.0
3117.64 1088.23 9312.0
3705.88 1088.23 9312.0
3705.88 1088.23 9312.0
4323.53 1088.23 9312.0
4323.53 1088.23 9313.0
4764.7 1088.23 9313.0
4764.7 1088.23 9311.0
5191.17 1088.23 9311.0
5191.17 1088.23 9303.0
5617.64 1088.23 9303.0
5617.64 1088.23 9308.0
6058.81 1088.23 9308.0
6058.81 1088.23 9307.0
6411.75 1088.23 9307.0
6411.75 1088.23 9311.0
6823.51 1088.23 9311.0
0.0 1088.23 9354.0
294.12 1088.23 9354.0
294.12 1088.23 9356.0
676.47 1088.23 9356.0
676.47 1088.23 9353.0
1176.47 1088.23 9353.0
1176.47 1088.23 9350.0
1970.59 1088.23 9350.0
1970.59 1088.23 9349.0
2441.17 1088.23 9349.0
2441.17 1088.23 9351.0
2764.7 1088.23 9351.0
2764.7 1088.23 9343.0
3117.64 1088.23 9343.0
3117.64 1088.23 9312.0
3705.88 1088.23 9312.0
3705.88 1088.23 9325.0
4323.53 1088.23 9325.0
4323.53 1088.23 9314.0
4764.7 1088.23 9314.0
4764.7 1088.23 9312.0
5191.17 1088.23 9312.0
5191.17 1088.23 9311.0
5617.64 1088.23 9311.0
5617.64 1088.23 9309.0
6058.81 1088.23 9309.0
6058.81 1088.23 9305.0
6411.75 1088.23 9305.0
6411.75 1088.23 9305.0
6823.51 1088.23 9305.0
0.0 1617.64 9354.0
294.12 1617.64 9354.0
294.12 1617.64 9356.0
676.47 1617.64 9356.0
676.47 1617.64 9353.0
1176.47 1617.64 9353.0
1176.47 1617.64 9350.0
1970.59 1617.64 9350.0
1970.59 1617.64 9349.0
2441.17 1617.64 9349.0
2441.17 1617.64 9351.0
2764.7 1617.64 9351.0
2764.7 1617.64 9343.0
3117.64 1617.64 9343.0
3117.64 1617.64 9312.0
3705.88 1617.64 9312.0
3705.88 1617.64 9325.0
4323.53 1617.64 9325.0
4323.53 1617.64 9314.0
4764.7 1617.64 9314.0
4764.7 1617.64 9312.0
5191.17 1617.64 9312.0
5191.17 1617.64 9311.0
5617.64 1617.64 9311.0
5617.64 1617.64 9309.0
6058.81 1617.64 9309.0
6058.81 1617.64 9305.0
6411.75 1617.64 9305.0
6411.75 1617.64 9305.0
6823.51 1617.64 9305.0
0.0 1617.64 9347.0
294.12 1617.64 9347.0
294.12 1617.64 9347.0
676.47 1617.64 9347.0
676.47 1617.64 9341.0
1176.47 1617.64 9341.0
1176.47 1617.64 9344.0
1970.59 1617.64 9344.0
1970.59 1617.64 9337.0
2441.17 1617.64 9337.0
2441.17 1617.64 9337.0
2764.7 1617.64 9337.0
2764.7 1617.64 9338.0
3117.64 1617.64 9338.0
3117.64 1617.64 9320.0
3705.88 1617.64 9320.0
3705.88 1617.64 9312.0
4323.53 1617.64 9312.0
4323.53 1617.64 9307.0
4764.7 1617.64 9307.0
4764.7 1617.64 9303.0
5191.17 1617.64 9303.0
5191.17 1617.64 9296.5
5617.64 1617.64 9296.5
5617.64 1617.64 9296.5
6058.81 1617.64 9296.5
6058.81 1617.64 9296.5
6411.75 1617.64 9296.5
6411.75 1617.64 9296.5
6823.51 1617.64 9296.5
0.0 2058.81 9347.0
294.12 2058.81 9347.0
294.12 2058.81 9347.0
676.47 2058.81 9347.0
676.47 2058.81 9341.0
1176.47 2058.81 9341.0
1176.47 2058.81 9344.0
1970.59 2058.81 9344.0
1970.59 2058.81 9337.0
2441.17 2058.81 9337.0
2441.17 2058.81 9337.0
2764.7 2058.81 9337.0
2764.7 2058.81 9338.0
3117.64 2058.81 9338.0
3117.64 2058.81 9320.0
3705.88 2058.81 9320.0
3705.88 2058.81 9312.0
4323.53 2058.81 9312.0
4323.53 2058.81 9307.0
4764.7 2058.81 9307.0
4764.7 2058.81 9303.0
5191.17 2058.81 9303.0
5191.17 2058.81 9296.5
5617.64 2058.81 9296.5
5617.64 2058.81 9296.5
6058.81 2058.81 9296.5
6058.81 2058.81 9296.5
6411.75 2058.81 9296.5
6411.75 2058.81 9296.5
6823.51 2058.81 9296.5
0.0 2058.81 9295.0
294.12 2058.81 9295.0
294.12 2058.81 9295.0
676.47 2058.81 9295.0
676.47 2058.81 9295.0
1176.47 2058.81 9295.0
1176.47 2058.81 9295.0
1970.59 2058.81 9295.0
1970.59 2058.81 9295.0
2441.17 2058.81 9295.0
2441.17 2058.81 9295.0
2764.7 2058.81 9295.0
2764.7 2058.81 9297.0
3117.64 2058.81 9297.0
3117.64 2058.81 9298.0
3705.88 2058.81 9298.0
3705.88 2058.81 9305.0
4323.53 2058.81 9305.0
4323.53 2058.81 9291.0
4764.7 2058.81 9291.0
4764.7 2058.81 9291.0
5191.17 2058.81 9291.0
5191.17 2058.81 9291.0
5617.64 2058.81 9291.0
5617.64 2058.81 9291.0
6058.81 2058.81 9291.0
6058.81 2058.81 9291.0
6411.75 2058.81 9291.0
6411.75 2058.81 9291.0
6823.51 2058.81 9291.0
0.0 2499.98 9295.0
294.12 2499.98 9295.0
294.12 2499.98 9295.0
676.47 2499.98 9295.0
676.47 2499.98 9295.0
1176.47 2499.98 9295.0
1176.47 2499.98 9295.0
1970.59 2499.98 9295.0
1970.59 2499.98 9295.0
2441.17 2499.98 9295.0
2441.17 2499.98 9295.0
2764.7 2499.98 9295.0
2764.7 2499.98 9297.0
3117.64 2499.98 9297.0
3117.64 2499.98 9298.0
3705.88 2499.98 9298.0
3705.88 2499.98 9305.0
4323.53 2499.98 9305.0
4323.53 2499.98 9291.0
4764.7 2499.98 9291.0
4764.7 2499.98 9291.0
5191.17 2499.98 9291.0
5191.17 2499.98 9291.0
5617.64 2499.98 9291.0
5617.64 2499.98 9291.0
6058.81 2499.98 9291.0
6058.81 2499.98 9291.0
6411.75 2499.98 9291.0
6411.75 2499.98 9291.0
6823.51 2499.98 9291.0
0.0 2499.98 9302.0
294.12 2499.98 9302.0
294.12 2499.98 9302.0
676.47 2499.98 9302.0
676.47 2499.98 9302.0
1176.47 2499.98 9302.0
1176.47 2499.98 9302.0
1970.59 2499.98 9302.0
1970.59 2499.98 9302.0
2441.17 2499.98 9302.0
2441.17 2499.98 9302.0
2764.7 2499.98 9302.0
2764.7 2499.98 9302.0
3117.64 2499.98 9302.0
3117.64 2499.98 9302.0
3705.88 2499.98 9302.0
3705.88 2499.98 9311.0
4323.53 2499.98 9311.0
4323.53 2499.98 9288.0
4764.7 2499.98 9288.0
4764.7 2499.98 9319.0
5191.17 2499.98 9319.0
5191.17 2499.98 9319.0
5617.64 2499.98 9319.0
5617.64 2499.98 9319.0
6058.81 2499.98 9319.0
6058.81 2499.98 9319.0
6411.75 2499.98 9319.0
6411.75 2499.98 9319.0
6823.51 2499.98 9319.0
0.0 2941.15 9302.0
294.12 2941.15 9302.0
294.12 2941.15 9302.0
676.47 2941.15 9302.0
676.47 2941.15 9302.0
1176.47 2941.15 9302.0
1176.47 2941.15 9302.0
1970.59 2941.15 9302.0
1970.59 2941.15 9302.0
2441.17 2941.15 9302.0
2441.17 2941.15 9302.0
2764.7 2941.15 9302.0
2764.7 2941.15 9302.0
3117.64 2941.15 9302.0
3117.64 2941.15 9302.0
3705.88 2941.15 9302.0
3705.88 2941.15 9311.0
4323.53 2941.15 9311.0
4323.53 2941.15 9288.0
4764.7 2941.15 9288.0
4764.7 2941.15 9319.0
5191.17 2941.15 9319.0
5191.17 2941.15 9319.0
5617.64 2941.15 9319.0
5617.64 2941.15 9319.0
6058.81 2941.15 9319.0
6058.81 2941.15 9319.0
6411.75 2941.15 9319.0
6411.75 2941.15 9319.0
6823.51 2941.15 9319.0
0.0 2941.15 9310.0
294.12 2941.15 9310.0
294.12 2941.15 9310.0
676.47 2941.15 9310.0
676.47 2941.15 9310.0
1176.47 2941.15 9310.0
1176.47 2941.15 9310.0
1970.59 2941.15 9310.0
1970.59 2941.15 9310.0
2441.17 2941.15 9310.0
2441.17 2941.15 9310.0
2764.7 2941.15 9310.0
2764.7 2941.15 9310.0
3117.64 2941.15 9310.0
3117.64 2941.15 9310.0
3705.88 2941.15 9310.0
3705.88 2941.15 9293.0
4323.53 2941.15 9293.0
4323.53 2941.15 9283.0
4764.7 2941.15 9283.0
4764.7 2941.15 9283.0
5191.17 2941.15 9283.0
5191.17 2941.15 9283.0
5617.64 2941.15 9283.0
5617.64 2941.15 9283.0
6058.81 2941.15 9283.0
6058.81 2941.15 9283.0
6411.75 2941.15 9283.0
6411.75 2941.15 9283.0
6823.51 2941.15 9283.0
0.0 3294.09 9310.0
294.12 3294.09 9310.0
294.12 3294.09 9310.0
676.47 3294.09 9310.0
676.47 3294.09 9310.0
1176.47 3294.09 9310.0
1176.47 3294.09 9310.0
1970.59 3294.09 9310.0
1970.59 3294.09 9310.0
2441.17 3294.09 9310.0
2441.17 3294.09 9310.0
2764.7 3294.09 9310.0
2764.7 3294.09 9310.0
3117.64 3294.09 9310.0
3117.64 3294.09 9310.0
3705.88 3294.09 9310.0
3705.88 3294.09 9293.0
4323.53 3294.09 9293.0
4323.53 3294.09 9283.0
4764.7 3294.09 9283.0
4764.7 3294.09 9283.0
5191.17 3294.09 9283.0
5191.17 3294.09 9283.0
5617.64 3294.09 9283.0
5617.64 3294.09 9283.0
6058.81 3294.09 9283.0
6058.81 3294.09 9283.0
6411.75 3294.09 9283.0
6411.75 3294.09 9283.0
6823.51 3294.09 9283.0
CELLS 120 1080
8 0 1 31 30 480 481 511 510
8 2 3 33 32 482 483 513 512
8 4 5 35 34 484 485 515 514
8 6 7 37 36 486 487 517 516
8 8 9 39 38 488 489 519 518
8 10 11 41 40 490 491 521 520
8 12 13 43 42 492 493 523 522
8 14 15 45 44 494 495 525 524
8 16 17 47 46 496 497 527 526
8 18 19 49 48 498 499 529 528
8 20 21 51 50 500 501 531 530
8 22 23 53 52 502 503 533 532
8 24 25 55 54 504 505 535 534
8 26 27 57 56 506 507 537 536
8 28 29 59 58 508 509 539 538
8 60 61 91 90 540 541 571 570
8 62 63 93 92 542 543 573 572
8 64 65 95 94 544 545 575 574
8 66 67 97 96 546 547 577 576
8 68 69 99 98 548 549 579 578
8 70 71 101 100 550 551 581 580
8 72 73 103 102 552 553 583 582
8 74 75 105 104 554 555 585 584
8 76 77 107 106 556 557 587 586
8 78 79 109 108 558 559 589 588
8 80 81 111 110 560 561 591 590
8 82 83 113 112 562 563 593 592
8 84 85 115 114 564 565 595 594
8 86 87 117 116 566 567 597 596
8 88 89 119 118 568 569 599 598
8 120 121 151 150 600 601 631 630
8 122 123 153 152 602 603 633 632
8 124 125 155 154 604 605 635 634
8 126 127 157 156 606 607 637 636
8 128 129 159 158 608 609 639 638
8 130 131 161 160 610 611 641 640
8 132 133 163 162 612 613 643 642
8 134 135 165 164 614 615 645 644
8 136 137 167 166 616 617 647 646
8 138 139 169 168 618 619 649 648
8 140 141 171 170 620 621 651 650
8 142 143 173 172 622 623 653 652
8 144 145 175 174 624 625 655 654
8 146 147 177 176 626 627 657 656
8 148 149 179 178 628 629 659 658
8 180 181 211 210 660 661 691 690
8 182 183 213 212 662 663 693 692
8 184 185 215 214 664 665 695 694
8 186 187 217 216 666 667 697 696
8 188 189 219 218 668 669 699 698
8 190 191 221 220 670 671 701 700
8 192 193 223 222 672 673 703 702
8 194 195 225 224 674 675 705 704
8 196 197 227 226 676 677 707 706
8 198 199 229 228 678 679 709 708
8 200 201 231 230 680 681 711 710
8 202 203 233 232 682 683 713 712
8 204 205 235 234 684 685 715 714
8 206 207 237 236 686 687 717 716
8 208 209 239 238 688 689 719 718
8 240 241 271 270 720 721 751 750
8 242 243 273 272 722 723 753 752
8 244 245 275 274 724 725 755 754
8 246 247 277 276 726 727 757 756
8 248 249 279 278 728 729 759 758
8 250 251 281 280 730 731 761 760
8 252 253 283 282 732 733 763 762
8 254 255 285 284 734 735 765 764
8 256 257 287 286 736 737 767 766
8 258 259 289 288 738 739 769 768
8 260 261 291 290 740 741 771 770
8 262 263 293 292 742 743 773 772
8 264 265 295 294 744 745 775 774
8 266 267 297 296 746 747 777 776
8 268 269 299 298 748 749 779 778
8 300 301 331 330 780 781 811 810
8 302 303 333 332 782 783 813 812
8 304 305 335 334 784 785 815 814
8 306 307 337 336 786 787 817 816
8 308 309 339 338 788 789 819 818
8 310 311 341 340 790 791 821 820
8 312 313 343 342 792 793 823 822
8 314 315 345 344 794 795 825 824
8 316 317 347 346 796 797 827 826
8 318 319 349 348 798 799 829 828
8 320 321 351 350 800 801 831 830
8 322 323 353 352 802 803 833 832
8 324 325 355 354 804 805 835 834
8 326 327 357 356 806 807 837 836
8 328 329 359 358 808 809 839 838
8 360 361 391 390 840 841 871 870
8 362 363 393 392 842 843 873 872
8 364 365 395 394 844 845 875 874
8 366 367 397 396 846 847 877 876
8 368 369 399 398 848 849 879 878
8 370 371 401 400 850 851 881 880
8 372 373 403 402 852 853 883 882
8 374 375 405 404 854 855 885 884
8 376 377 407 406 856 857 887 886
8 378 379 409 408 858 859 889 888
8 380 381 411 410 860 861 891 890
8 382 383 413 412 862 863 893 892
8 384 385 415 414 864 865 895 894
8 386 387 417 416 866 867 897 896
8 388 389 419 418 868 869 899 898
8 420 421 451 450 900 901 931 930
8 422 423 453 452 902 903 933 932
8 424 425 455 454 904 905 935 934
8 426 427 457 456 906 907 937 936
8 428 429 459 458 908 909 939 938
8 430 431 461 460 910 911 941 940
8 432 433 463 462 912 913 943 942
8 434 435 465 464 914 915 945 944
8 436 437 467 466 916 917 947 946
8 438 439 469 468 918 919 949 948
8 440 441 471 470 920 921 951 950
8 442 443 473 472 922 923 953 952
8 444 445 475 474 924 925 955 954
8 446 447 477 476 926 927 957 956
8 448 449 479 478 928 929 959 958
CELL_TYPES 120
12 12 12 12 12 12 12 12 12 12 12 12 12 12 12 12 12 12 12 12 12 12 12 12 12 12 12 12 12 12 12 12 12 12 12 12 12 12 12 12 12 12 12 12 12 12 12 12 12 12 12 12 12 12 12 12 12 12 12 12 12 12 12 12 12 12 12 12 12 12 12 12 12 12 12 12 12 12 12 12 12 12 12 12 12 12 12 12 12 12 12 12 12 12 12 12 12 12 12 12 12 12 12 12 12 12 12 12 12 12 12 12 12 12 12 12 12 12 12 12
CELL_DATA 120
SCALARS Fault_x0 double 1
LOOKUP_TABLE default
0.0 0.0 0.5 1.0 1.0 1.0 1.0 1.0 1.0 1.0 1.0 1.0 1.0 1.0 1.0 0.0 0.0 0.5 0.5 0.0 1.0 1.0 1.0 1.0 0.0 0.0 0.5 1.0 1.0 1.0 0.0 0.5 0.5 0.5 0.5 0.5 0.0 0.5 1.0 0.5 0.5 0.5 0.5 0.5 0.0 0.0 0.5 0.5 0.5 0.5 0.5 0.5 0.5 0.5 0.5 0.5 0.5 0.5 0.5 1.0 0.0 1.0 0.5 0.5 0.5 1.0 0.5 0.5 0.5 0.5 0.5 0.5 1.0 1.0 1.0 0.0 1.0 1.0 1.0 1.0 1.0 0.5 0.5 0.5 0.0 1.0 1.0 1.0 1.0 1.0 0.0 1.0 1.0 1.0 1.0 1.0 1.0 1.0 0.5 0.0 0.0 1.0 1.0 1.0 1.0 0.0 0.0 0.0 0.0 0.0 0.0 0.0 0.0 0.0 0.0 1.0 1.0 1.0 1.0 1.0
SCALARS Fault_x1 double 1
LOOKUP_TABLE default
0.0 0.5 1.0 1.0 1.0 1.0 1.0 1.0 1.0 1.0 1.0 1.0 1.0 1.0 0.0 0.0 0.5 0.5 0.0 1.0 1.0 1.0 1.0 0.0 0.0 0.5 1.0 1.0 1.0 0.0 0.5 0.5 0.5 0.5 0.5 0.0 0.5 1.0 0.5 0.5 0.5 0.5 0.5 0.0 0.0 0.5 0.5 0.5 0.5 0.5 0.5 0.5 0.5 0.5 0.5 0.5 0.5 0.5 1.0 0.0 1.0 0.5 0.5 0.5 1.0 0.5 0.5 0.5 0.5 0.5 0.5 1.0 1.0 1.0 0.0 1.0 1.0 1.0 1.0 1.0 0.5 0.5 0.5 0.0 1.0 1.0 1.0 1.0 1.0 0.0 1.0 1.0 1.0 1.0 1.0 1.0 1.0 0.5 0.0 0.0 1.0 1.0 1.0 1.0 0.0 0.0 0.0 0.0 0.0 0.0 0.0 0.0 0.0 0.0 1.0 1.0 1.0 1.0 1.0 0.0
SCALARS Fault_y0 double 1
LOOKUP_TABLE default
0.0 0.0 0.0 0.0 0.0 0.0 0.0 0.0 0.0 0.0 0.0 0.0 0.0 0.0 0.0 0.0 0.0 0.5 0.5 0.0 0.0 0.0 0.0 0.0 0.0 0.0 0.0 0.0 0.0 0.0 1.0 0.5 0.5 0.5 0.0 0.5 0.0 0.0 0.0 0.0 0.5 0.0 0.0 0.0 0.5 0.5 0.5 0.5 0.5 0.5 0.5 0.5 0.5 0.5 0.5 0.5 0.5 0.5 0.5 0.0 0.5 0.5 0.5 0.5 0.5 0.5 0.5 0.5 0.5 0.5 0.5 0.5 0.5 0.0 0.0 0.0 0.0 0.0 0.0 0.0 0.0 0.0 0.5 0.5 0.0 0.0 0.0 0.0 0.0 0.0 0.0 0.0 0.0 0.0 0.0 0.0 0.5 0.5 0.5 0.0 0.0 0.0 0.0 0.0 0.0 0.0 0.0 0.0 0.0 0.0 0.0 0.0 0.0 0.0 0.5 0.0 0.0 0.0 0.0 0.0
SCALARS Fault_y1 double 1
LOOKUP_TABLE default
0.0 0.0 0.5 0.5 0.0 0.0 0.0 0.0 0.0 0.0 0.0 0.0 0.0 0.0 0.0 1.0 0.5 0.5 0.5 0.0 0.5 0.0 0.0 0.0 0.0 0.5 0.0 0.0 0.0 0.5 0.5 0.5 0.5 0.5 0.5 0.5 0.5 0.5 0.5 0.5 0.5 0.5 0.5 0.5 0.0 0.5 0.5 0.5 0.5 0.5 0.5 0.5 0.5 0.5 0.5 0.5 0.5 0.5 0.0 0.0 0.0 0.0 0.0 0.0 0.0 0.0 0.0 0.5 0.5 0.0 0.0 0.0 0.0 0.0 0.0 0.0 0.0 0.0 0.0 0.0 0.0 0.5 0.5 0.5 0.0 0.0 0.0 0.0 0.0 0.0 0.0 0.0 0.0 0.0 0.0 0.0 0.0 0.0 0.0 0.5 0.0 0.0 0.0 0.0 0.0 0.0 0.0 0.0 0.0 0.0 0.0 0.0 0.0 0.0 0.0 0.0 0.0 0.0 0.0 0.0