MAPUNITS
'METRES  ' /

MAPAXES
 198.493  196.212
 198.493 5001.833
3808.727 5001.833 /

GRIDUNIT
'METRES  ' '        ' /

SPECGRID
  36  48  12   1  F  /

COORD
        1.631         1.947    2000.000         1.356         1.702    2080.000
      101.026         2.135    2000.000       102.093         1.490    2080.000
      200.384         2.156    2000.000       202.883         1.465    2080.000
      299.692         2.120    2000.000       303.740         1.505    2080.000
      398.956         2.107    2000.000       404.661         1.518    2080.000
      498.213         2.117    2000.000       505.601         1.504    2080.000
      597.512         2.133    2000.000       606.501         1.484    2080.000
      696.895         2.144    2000.000       707.314         1.468    2080.000
      796.392         2.153    2000.000       808.004         1.456    2080.000
      896.009         2.158    2000.000       908.557         1.447    2080.000
      995.728         2.162    2000.000      1008.983         1.443    2080.000
     1095.530         2.164    2000.000      1109.299         1.442    2080.000
     1195.395         2.163    2000.000      1209.521         1.445    2080.000
     1295.301         2.161    2000.000      1309.666         1.450    2080.000
     1395.225         2.158    2000.000      1409.760         1.457    2080.000
     1495.142         2.156    2000.000      1509.830         1.464    2080.000
     1595.029         2.155    2000.000      1609.900         1.471    2080.000
     1694.871         2.156    2000.000      1709.994         1.474    2080.000
     1794.651         2.158    2000.000      1810.131         1.475    2080.000
     1894.376         2.165    2000.000      1910.311         1.472    2080.000
     1994.060         2.175    2000.000      2010.517         1.464    2080.000
     2093.723         2.190    2000.000      2110.729         1.451    2080.000
     2193.387         2.207    2000.000      2210.924         1.434    2080.000
     2293.077         2.227    2000.000      2311.082         1.414    2080.000
     2392.815         2.249    2000.000      2411.185         1.392    2080.000
     2492.625         2.275    2000.000      2511.217         1.366    2080.000
     2592.531         2.310    2000.000      2611.165         1.331    2080.000
     2692.559         2.359    2000.000      2711.008         1.280    2080.000
     2792.749         2.411    2000.000      2810.704         1.224    2080.000
     2893.165         2.416    2000.000      2910.189         1.220    2080.000
     2993.868         2.349    2000.000      3009.398         1.299    2080.000
     3094.889         2.354    2000.000      3108.302         1.295    2080.000
     3196.219         2.650    2000.000      3206.910         0.967    2080.000
     3297.751         3.134    2000.000      3305.324         0.426    2080.000
     3399.260         3.190    2000.000      3403.776         0.360    2080.000
     3500.571         2.212    2000.000      3502.444         1.447    2080.000
     3601.698        -0.000    2000.000      3601.308         3.893    2080.000
        1.536        95.772    2000.000         1.471       108.665    2080.000
      100.868        95.648    2000.000       102.296       108.854    2080.000
      200.159        95.332    2000.000       203.182       109.242    2080.000
      299.397        94.930    2000.000       304.141       109.716    2080.000
      398.593        94.534    2000.000       405.162       110.174    2080.000
      497.787        94.171    2000.000       506.195       110.592    2080.000
      597.031        93.839    2000.000       607.179       110.973    2080.000
      696.371        93.528    2000.000       708.062       111.327    2080.000
      795.836        93.227    2000.000       808.807       111.664    2080.000
      895.434        92.927    2000.000       909.399       111.989    2080.000
      995.144        92.633    2000.000      1009.849       112.291    2080.000
     1094.947        92.353    2000.000      1110.174       112.560    2080.000
     1194.818        92.096    2000.000      1210.392       112.783    2080.000
     1294.734        91.875    2000.000      1310.521       112.949    2080.000
     1394.671        91.685    2000.000      1410.589       113.066    2080.000
     1494.602        91.512    2000.000      1510.628       113.158    2080.000
     1594.501        91.346    2000.000      1610.669       113.242    2080.000
     1694.350        91.178    2000.000      1710.738       113.339    2080.000
     1794.131        90.999    2000.000      1810.859       113.465    2080.000
     1893.850        90.808    2000.000      1911.031       113.623    2080.000
     1993.522        90.609    2000.000      2011.236       113.805    2080.000
     2093.168        90.400    2000.000      2111.454       114.001    2080.000
     2192.810        90.187    2000.000      2211.661       114.203    2080.000
     2292.472        89.968    2000.000      2311.836       114.404    2080.000
     2392.179        89.735    2000.000      2411.959       114.616    2080.000
     2491.951        89.469    2000.000      2512.017       114.859    2080.000
     2591.813        89.164    2000.000      2611.995       115.148    2080.000
     2691.794        88.813    2000.000      2711.870       115.487    2080.000
     2791.939        88.418    2000.000      2811.600       115.877    2080.000
     2892.321        87.969    2000.000      2911.110       116.333    2080.000
     2993.014        87.494    2000.000      3010.323       116.838    2080.000
     3094.062        87.168    2000.000      3109.197       117.207    2080.000
     3195.463        87.214    2000.000      3207.727       117.200    2080.000
     3297.114        87.538    2000.000      3306.013       116.910    2080.000
     3398.783        87.552    2000.000      3404.288       116.973    2080.000
     3500.284        86.628    2000.000      3502.747       118.057    2080.000
     3601.596        84.501    2000.000      3601.410       120.393    2080.000
        1.497       189.026    2000.000         1.518       216.326    2080.000
      100.758       188.653    2000.000       102.441       216.882    2080.000
      199.970       188.053    2000.000       203.439       217.650    2080.000
      299.130       187.323    2000.000       304.513       218.531    2080.000
      398.250       186.565    2000.000       405.645       219.420    2080.000
      497.377       185.831    2000.000       506.780       220.269    2080.000
      596.565       185.140    2000.000       607.853       221.064    2080.000
      695.858       184.483    2000.000       708.813       221.814    2080.000
      795.291       183.839    2000.000       809.618       222.534    2080.000
      894.870       183.197    2000.000       910.253       223.229    2080.000
      994.575       182.564    2000.000      1010.729       223.873    2080.000
     1094.381       181.964    2000.000      1111.063       224.440    2080.000
     1194.263       181.422    2000.000      1211.273       224.895    2080.000
     1294.195       180.961    2000.000      1311.379       225.216    2080.000
     1394.151       180.577    2000.000      1411.412       225.421    2080.000
     1494.102       180.240    2000.000      1511.410       225.562    2080.000
     1594.021       179.921    2000.000      1611.410       225.692    2080.000
     1693.885       179.599    2000.000      1711.445       225.857    2080.000
     1793.672       179.248    2000.000      1811.543       226.101    2080.000
     1893.389       178.864    2000.000      1911.704       226.426    2080.000
     1993.052       178.457    2000.000      2011.908       226.810    2080.000
     2092.683       178.031    2000.000      2112.132       227.229    2080.000
     2192.304       177.594    2000.000      2212.352       227.663    2080.000
     2291.940       177.147    2000.000      2312.545       228.098    2080.000
     2391.612       176.664    2000.000      2412.694       228.558    2080.000
     2491.342       176.111    2000.000      2512.782       229.081    2080.000
     2591.155       175.460    2000.000      2612.796       229.700    2080.000
     2691.080       174.696    2000.000      2712.712       230.438    2080.000
     2791.166       173.820    2000.000      2812.487       231.301    2080.000
     2891.495       172.854    2000.000      2912.039       232.282    2080.000
     2992.154       171.862    2000.000      3011.280       233.341    2080.000
     3093.203       171.021    2000.000      3110.148       234.309    2080.000
     3194.655       170.526    2000.000      3208.623       234.983    2080.000
     3296.421       170.313    2000.000      3306.780       235.406    2080.000
     3398.278       169.928    2000.000      3404.843       236.021    2080.000
     3500.037       168.837    2000.000      3503.011       237.332    2080.000
     3601.608       166.765    2000.000      3601.389       239.501    2080.000
        1.495       281.747    2000.000         1.520       324.609    2080.000
      100.680       281.150    2000.000       102.545       325.522    2080.000
      199.809       280.301    2000.000       203.659       326.652    2080.000
      298.884       279.276    2000.000       304.855       327.919    2080.000
      397.926       278.178    2000.000       406.104       329.226    2080.000
      496.983       277.087    2000.000       507.346       330.505    2080.000
      596.111       276.037    2000.000       608.518       331.729    2080.000
      695.357       275.021    2000.000       709.563       332.904    2080.000
      794.757       274.010    2000.000       810.437       334.049    2080.000
      894.321       272.992    2000.000       911.120       335.159    2080.000
      994.025       271.988    2000.000      1011.624       336.189    2080.000
     1093.840       271.034    2000.000      1111.966       337.085    2080.000
     1193.740       270.175    2000.000      1212.163       337.792    2080.000
     1293.697       269.455    2000.000      1312.237       338.265    2080.000
     1393.681       268.873    2000.000      1412.223       338.533    2080.000
     1493.661       268.382    2000.000      1512.165       338.689    2080.000
     1593.610       267.934    2000.000      1612.110       338.828    2080.000
     1693.497       267.483    2000.000      1712.099       339.037    2080.000
     1793.298       266.977    2000.000      1812.167       339.390    2080.000
     1893.016       266.415    2000.000      1912.313       339.889    2080.000
     1992.672       265.813    2000.000      2012.515       340.486    2080.000
     2092.288       265.185    2000.000      2112.747       341.143    2080.000
     2191.887       264.538    2000.000      2212.983       341.824    2080.000
     2291.494       263.873    2000.000      2313.199       342.508    2080.000
     2391.127       263.146    2000.000      2413.379       343.229    2080.000
     2490.807       262.301    2000.000      2513.506       344.043    2080.000
     2590.560       261.292    2000.000      2613.565       345.005    2080.000
     2690.415       260.086    2000.000      2713.534       346.157    2080.000
     2790.423       258.681    2000.000      2813.370       347.523    2080.000
     2890.676       257.122    2000.000      2912.984       349.094    2080.000
     2991.274       255.491    2000.000      3012.277       350.828    2080.000
     3092.292       253.944    2000.000      3111.170       352.604    2080.000
     3193.763       252.622    2000.000      3209.618       354.279    2080.000
     3295.623       251.515    2000.000      3307.668       355.817    2080.000
     3397.682       250.423    2000.000      3405.503       357.328    2080.000
     3499.755       249.027    2000.000      3503.318       358.990    2080.000
     3601.655       247.083    2000.000      3601.335       360.825    2080.000
        1.510       373.956    2000.000         1.500       433.432    2080.000
      100.619       373.121    2000.000       102.625       434.713    2080.000
      199.665       372.029    2000.000       203.852       436.206    2080.000
      298.657       370.728    2000.000       305.165       437.858    2080.000
      397.619       369.311    2000.000       406.533       439.584    2080.000
      496.603       367.876    2000.000       507.890       441.308    2080.000
      595.669       366.476    2000.000       609.169       442.992    2080.000
      694.867       365.100    2000.000       710.310       444.635    2080.000
      794.237       363.711    2000.000       811.261       446.256    2080.000
      893.790       362.297    2000.000       912.000       447.835    2080.000
      993.499       360.896    2000.000      1012.534       449.300    2080.000
     1093.334       359.564    2000.000      1112.880       450.564    2080.000
     1193.263       358.368    2000.000      1213.056       451.540    2080.000
     1293.255       357.381    2000.000      1313.085       452.159    2080.000
     1393.279       356.607    2000.000      1413.006       452.459    2080.000
     1493.303       355.984    2000.000      1512.874       452.586    2080.000
     1593.293       355.438    2000.000      1612.745       452.686    2080.000
     1693.215       354.890    2000.000      1712.672       452.901    2080.000
     1793.036       354.261    2000.000      1812.699       453.349    2080.000
     1892.759       353.540    2000.000      1912.825       454.021    2080.000
     1992.408       352.761    2000.000      2013.023       454.840    2080.000
     2092.008       351.944    2000.000      2113.264       455.740    2080.000
     2191.581       351.097    2000.000      2213.519       456.674    2080.000
     2291.151       350.218    2000.000      2313.764       457.616    2080.000
     2390.737       349.240    2000.000      2413.983       458.612    2080.000
     2490.356       348.084    2000.000      2514.158       459.732    2080.000
     2590.034       346.683    2000.000      2614.276       461.050    2080.000
     2689.801       344.988    2000.000      2714.314       462.636    2080.000
     2789.708       342.988    2000.000      2814.231       464.535    2080.000
     2889.856       340.742    2000.000      2913.931       466.744    2080.000
     2990.358       338.350    2000.000      3013.304       469.230    2080.000
     3091.307       335.927    2000.000      3112.257       471.934    2080.000
     3192.757       333.547    2000.000      3210.719       474.797    2080.000
     3294.678       331.284    2000.000      3308.698       477.673    2080.000
     3396.935       329.293    2000.000      3406.319       480.247    2080.000
     3499.361       327.582    2000.000      3503.752       482.267    2080.000
     3601.646       325.949    2000.000      3601.355       483.581    2080.000
        1.526       465.669    2000.000         1.480       542.716    2080.000
      100.560       464.556    2000.000       102.698       544.387    2080.000
      199.530       463.211    2000.000       204.025       546.263    2080.000
      298.445       461.645    2000.000       305.447       548.318    2080.000
      397.331       459.925    2000.000       406.929       550.489    2080.000
      496.242       458.168    2000.000       508.406       552.689    2080.000
      595.246       456.436    2000.000       609.802       554.872    2080.000
      694.397       454.712    2000.000       711.049       557.035    2080.000
      793.742       452.950    2000.000       812.086       559.189    2080.000
      893.292       451.141    2000.000       912.883       561.295    2080.000
      993.017       449.335    2000.000      1013.446       563.243    2080.000
     1092.883       447.616    2000.000      1113.790       564.907    2080.000
     1192.855       446.079    2000.000      1213.932       566.160    2080.000
     1292.898       444.834    2000.000      1313.897       566.897    2080.000
     1392.980       443.893    2000.000      1413.730       567.175    2080.000
     1493.064       443.173    2000.000      1513.498       567.198    2080.000
     1593.111       442.572    2000.000      1613.270       567.184    2080.000
     1693.078       441.972    2000.000      1713.114       567.348    2080.000
     1792.926       441.249    2000.000      1813.087       567.863    2080.000
     1892.658       440.389    2000.000      1913.186       568.701    2080.000
     1992.299       439.442    2000.000      2013.378       569.732    2080.000
     2091.876       438.438    2000.000      2113.625       570.859    2080.000
     2191.415       437.387    2000.000      2213.901       572.027    2080.000
     2290.939       436.278    2000.000      2314.179       573.216    2080.000
     2390.465       435.027    2000.000      2414.442       574.478    2080.000
     2490.011       433.532    2000.000      2514.675       575.894    2080.000
     2589.599       431.702    2000.000      2614.862       577.558    2080.000
     2689.257       429.471    2000.000      2714.985       579.563    2080.000
     2789.041       426.819    2000.000      2815.001       581.976    2080.000
     2889.058       423.819    2000.000      2914.809       584.798    2080.000
     2989.432       420.586    2000.000      3014.289       588.002    2080.000
     3090.275       417.192    2000.000      3113.333       591.599    2080.000
     3191.662       413.639    2000.000      3211.853       595.616    2080.000
     3293.606       410.109    2000.000      3309.812       599.797    2080.000
     3396.040       407.185    2000.000      3407.259       603.388    2080.000
     3498.830       405.284    2000.000      3504.329       605.701    2080.000
     3601.523       404.237    2000.000      3601.516       606.391    2080.000
        1.538       556.906    2000.000         1.465       652.404    2080.000
      100.504       555.497    2000.000       102.768       654.497    2080.000
      199.405       553.904    2000.000       204.183       656.774    2080.000
      298.251       552.087    2000.000       305.703       659.256    2080.000
      397.063       550.093    2000.000       407.299       661.899    2080.000
      495.905       548.047    2000.000       508.899       664.610    2080.000
      594.850       546.016    2000.000       610.417       667.335    2080.000
      693.960       543.975    2000.000       711.775       670.064    2080.000
      793.288       541.867    2000.000       812.900       672.799    2080.000
      892.847       539.679    2000.000       913.754       675.474    2080.000
      992.604       537.485    2000.000      1014.337       677.935    2080.000
     1092.518       535.389    2000.000      1114.665       680.009    2080.000
     1192.550       533.527    2000.000      1214.754       681.516    2080.000
     1292.665       532.053    2000.000      1314.629       682.308    2080.000
     1392.824       530.992    2000.000      1414.344       682.459    2080.000
     1492.987       530.231    2000.000      1513.980       682.260    2080.000
     1593.105       529.630    2000.000      1613.625       682.025    2080.000
     1693.129       529.019    2000.000      1713.365       682.068    2080.000
     1793.010       528.221    2000.000      1813.270       682.620    2080.000
     1892.748       527.219    2000.000      1913.337       683.613    2080.000
     1992.376       526.088    2000.000      2013.517       684.829    2080.000
     2091.922       524.872    2000.000      2113.770       686.131    2080.000
     2191.416       523.587    2000.000      2214.065       687.476    2080.000
     2290.883       522.219    2000.000      2314.377       688.854    2080.000
     2390.340       520.671    2000.000      2414.686       690.323    2080.000
     2489.802       518.823    2000.000      2514.975       691.961    2080.000
     2589.292       516.569    2000.000      2615.232       693.867    2080.000
     2688.836       513.824    2000.000      2715.438       696.153    2080.000
     2788.490       510.567    2000.000      2815.550       698.899    2080.000
     2888.370       506.886    2000.000      2915.462       702.098    2080.000
     2988.611       502.908    2000.000      3015.044       705.732    2080.000
     3089.338       498.659    2000.000      3114.183       709.879    2080.000
     3190.643       494.062    2000.000      3212.776       714.667    2080.000
     3292.584       489.400    2000.000      3310.752       719.771    2080.000
     3395.166       485.695    2000.000      3408.089       724.081    2080.000
     3498.282       483.802    2000.000      3504.881       726.565    2080.000
     3601.339       483.579    2000.000      3601.741       726.707    2080.000
        1.549       647.727    2000.000         1.454       762.489    2080.000
      100.451       646.045    2000.000       102.833       765.029    2080.000
      199.292       644.235    2000.000       204.329       767.721    2080.000
      298.075       642.208    2000.000       305.942       770.642    2080.000
      396.821       639.985    2000.000       407.650       773.774    2080.000
      495.600       637.700    2000.000       509.372       777.017    2080.000
      594.493       635.423    2000.000       611.013       780.306    2080.000
      693.574       633.118    2000.000       712.480       783.625    2080.000
      792.899       630.712    2000.000       813.687       786.956    2080.000
      892.485       628.193    2000.000       914.583       790.201    2080.000
      992.291       625.646    2000.000      1015.170       793.158    2080.000
     1092.273       623.207    2000.000      1115.460       795.605    2080.000
     1192.387       621.057    2000.000      1215.469       797.294    2080.000
     1292.594       619.403    2000.000      1315.222       798.023    2080.000
     1392.852       618.285    2000.000      1414.783       797.897    2080.000
     1493.111       617.553    2000.000      1514.255       797.316    2080.000
     1593.316       617.014    2000.000      1613.744       796.724    2080.000
     1693.404       616.428    2000.000      1713.362       796.569    2080.000
     1793.319       615.555    2000.000      1813.191       797.142    2080.000
     1893.062       614.379    2000.000      1913.220       798.268    2080.000
     1992.667       613.011    2000.000      2013.387       799.611    2080.000
     2092.172       611.525    2000.000      2113.642       800.994    2080.000
     2191.610       609.944    2000.000      2213.953       802.409    2080.000
     2291.009       608.263    2000.000      2314.296       803.871    2080.000
     2390.388       606.390    2000.000      2414.646       805.432    2080.000
     2489.764       604.201    2000.000      2514.985       807.146    2080.000
     2589.158       601.578    2000.000      2615.297       809.093    2080.000
     2688.597       598.433    2000.000      2715.564       811.393    2080.000
     2788.138       594.747    2000.000      2815.744       814.121    2080.000
     2887.902       590.626    2000.000      2915.724       817.260    2080.000
     2988.037       586.208    2000.000      3015.372       820.792    2080.000
     3088.236       580.330    2000.000      3114.137       823.304    2080.000
     3189.369       574.779    2000.000      3212.687       827.764    2080.000
     3292.844       573.341    2000.000      3312.211       838.687    2080.000
     3394.470       566.952    2000.000      3408.482       840.081    2080.000
     3497.450       564.169    2000.000      3504.792       840.967    2080.000
     3603.327       562.088    2000.000      3603.923       836.819    2080.000
        1.560       738.252    2000.000         1.447       873.006    2080.000
      100.408       736.354    2000.000       102.894       876.010    2080.000
      199.194       734.394    2000.000       204.467       879.113    2080.000
      297.921       732.222    2000.000       306.171       882.456    2080.000
      396.608       729.841    2000.000       407.988       886.061    2080.000
      495.333       727.392    2000.000       509.829       889.817    2080.000
      594.189       724.945    2000.000       611.585       893.648    2080.000
      693.256       722.451    2000.000       713.148       897.521    2080.000
      792.599       719.824    2000.000       814.416       901.394    2080.000
      892.234       717.046    2000.000       915.329       905.132    2080.000
      992.113       714.210    2000.000      1015.888       908.492    2080.000
     1092.185       711.476    2000.000      1116.111       911.209    2080.000
     1192.403       709.084    2000.000      1216.010       912.961    2080.000
     1292.724       707.307    2000.000      1315.609       913.484    2080.000
     1393.101       706.200    2000.000      1414.983       912.919    2080.000
     1493.474       705.568    2000.000      1514.259       911.797    2080.000
     1593.775       705.149    2000.000      1613.570       910.715    2080.000
     1693.931       704.615    2000.000      1713.051       910.282    2080.000
     1793.878       703.645    2000.000      1812.800       910.855    2080.000
     1893.617       702.236    2000.000      1912.791       912.060    2080.000
     1993.192       700.551    2000.000      2012.942       913.416    2080.000
     2092.647       698.702    2000.000      2113.196       914.733    2080.000
     2192.018       696.737    2000.000      2213.521       916.068    2080.000
     2291.341       694.675    2000.000      2313.888       917.475    2080.000
     2390.640       692.447    2000.000      2414.271       918.979    2080.000
     2489.935       689.947    2000.000      2514.643       920.577    2080.000
     2589.248       687.063    2000.000      2614.983       922.311    2080.000
     2688.607       683.706    2000.000      2715.277       924.279    2080.000
     2787.668       678.813    2000.000      2815.082       925.145    2080.000
     2887.263       674.385    2000.000      2914.980       927.370    2080.000
     2988.751       673.662    2000.000      3016.009       934.936    2080.000
     3087.988       665.375    2000.000      3113.900       933.612    2080.000
     3190.344       663.090    2000.000      3213.666       941.700    2080.000
     3299.496       676.714    2000.000      3318.454       970.496    2080.000
     3397.578       660.799    2000.000      3411.419       959.932    2079.999
     3497.001       646.256    2000.000      3504.418       945.773    2079.999
     3603.521       633.727    2000.000      3604.184       927.902    2079.999
        1.568       828.642    2000.000         1.441       983.991    2080.000
      100.373       826.636    2000.000       102.949       987.471    2080.000
      199.113       824.629    2000.000       204.598       990.944    2080.000
      297.791       822.407    2000.000       306.394       994.636    2080.000
      396.430       819.962    2000.000       408.315       998.630    2080.000
      495.117       817.445    2000.000       510.264      1002.809    2080.000
      593.953       814.926    2000.000       612.114      1007.070    2080.000
      693.030       812.347    2000.000       713.744      1011.359    2080.000
      792.417       809.607    2000.000       815.036      1015.605    2080.000
      892.127       806.674    2000.000       915.924      1019.640    2080.000
      992.106       803.637    2000.000      1016.415      1023.208    2080.000
     1092.295       800.670    2000.000      1116.536      1026.040    2080.000
     1192.641       798.079    2000.000      1216.298      1027.742    2080.000
     1293.099       796.218    2000.000      1315.718      1027.969    2080.000
     1393.616       795.171    2000.000      1414.880      1026.867    2080.000
     1494.114       794.689    2000.000      1513.939      1025.110    2080.000
     1594.511       794.426    2000.000      1613.060      1023.464    2080.000
     1694.730       793.958    2000.000      1712.395      1022.666    2080.000
     1794.703       792.879    2000.000      1812.056      1023.113    2080.000
     1894.436       791.181    2000.000      1912.002      1024.225    2080.000
     1993.978       789.099    2000.000      2012.133      1025.387    2080.000
     2093.381       786.811    2000.000      2112.379      1026.416    2080.000
     2192.688       784.394    2000.000      2212.705      1027.469    2080.000
     2291.939       781.902    2000.000      2313.085      1028.646    2080.000
     2391.165       779.313    2000.000      2413.485      1029.925    2080.000
     2490.024       775.554    2000.000      2513.517      1029.959    2080.000
     2589.242       772.432    2000.000      2613.829      1031.148    2080.000
     2689.828       772.521    2000.000      2715.345      1036.887    2080.000
     2787.939       765.277    2000.000      2814.279      1033.963    2080.000
     2888.740       764.330    2000.000      2915.333      1039.199    2080.000
     2995.835       778.906    2000.000      3021.549      1063.028    2080.000
     3092.135       763.352    2000.000      3116.677      1051.381    2079.999
     3193.777       759.940    2000.000      3215.716      1056.011    2079.999
     3310.159       794.057    2000.000      3326.880      1104.378    2080.015
     3403.492       764.335    2000.000      3415.852      1078.425    2080.034