-- The following file was written from MATLAB using the MRST toolbox.

SPECGRID
10 10 3 1 F
/

COORD
     0.000000     0.000000     0.000000     0.000000     0.000000     0.250000
     0.090000     0.000000     0.000000     0.100000     0.000000     0.250000
     0.180000     0.000000     0.000000     0.200000     0.000000     0.250000
     0.270000     0.000000     0.000000     0.300000     0.000000     0.250000
     0.360000     0.000000     0.000000     0.400000     0.000000     0.250000
     0.450000     0.000000     0.000000     0.500000     0.000000     0.250000
     0.560000     0.000000     0.000000     0.600000     0.000000     0.250000
     0.670000     0.000000     0.000000     0.700000     0.000000     0.250000
     0.780000     0.000000     0.000000     0.800000     0.000000     0.250000
     0.890000     0.000000     0.000000     0.900000     0.000000     0.250000
     1.000000     0.000000     0.000000     1.000000     0.000000     0.250000
     0.000000     0.100000     0.000000     0.000000     0.100000     0.250000
     0.090000     0.100000     0.000000     0.100000     0.100000     0.250000
     0.180000     0.100000     0.000000     0.200000     0.100000     0.250000
     0.270000     0.100000     0.000000     0.300000     0.100000     0.250000
     0.360000     0.100000     0.000000     0.400000     0.100000     0.250000
     0.450000     0.100000     0.000000     0.500000     0.100000     0.250000
     0.560000     0.100000     0.000000     0.600000     0.100000     0.250000
     0.670000     0.100000     0.000000     0.700000     0.100000     0.250000
     0.780000     0.100000     0.000000     0.800000     0.100000     0.250000
     0.890000     0.100000     0.000000     0.900000     0.100000     0.250000
     1.000000     0.100000     0.000000     1.000000     0.100000     0.250000
     0.000000     0.200000     0.000000     0.000000     0.200000     0.250000
     0.090000     0.200000     0.000000     0.100000     0.200000     0.250000
     0.180000     0.200000     0.000000     0.200000     0.200000     0.250000
     0.270000     0.200000     0.000000     0.300000     0.200000     0.250000
     0.360000     0.200000     0.000000     0.400000     0.200000     0.250000
     0.450000     0.200000     0.000000     0.500000     0.200000     0.250000
     0.560000     0.200000     0.000000     0.600000     0.200000     0.250000
     0.670000     0.200000     0.000000     0.700000     0.200000     0.250000
     0.780000     0.200000     0.000000     0.800000     0.200000     0.250000
     0.890000     0.200000     0.000000     0.900000     0.200000     0.250000
     1.000000     0.200000     0.000000     1.000000     0.200000     0.250000
     0.000000     0.300000     0.000000     0.000000     0.300000     0.250000
     0.090000     0.300000     0.000000     0.100000     0.300000     0.250000
     0.180000     0.300000     0.000000     0.200000     0.300000     0.250000
     0.270000     0.300000     0.000000     0.300000     0.300000     0.250000
     0.360000     0.300000     0.000000     0.400000     0.300000     0.250000
     0.450000     0.300000     0.000000     0.500000     0.300000     0.250000
     0.560000     0.300000     0.000000     0.600000     0.300000     0.250000
     0.670000     0.300000     0.000000     0.700000     0.300000     0.250000
     0.780000     0.300000     0.000000     0.800000     0.300000     0.250000
     0.890000     0.300000     0.000000     0.900000     0.300000     0.250000
     1.000000     0.300000     0.000000     1.000000     0.300000     0.250000
     0.000000     0.400000     0.000000     0.000000     0.400000     0.250000
     0.090000     0.400000     0.000000     0.100000     0.400000     0.250000
     0.180000     0.400000     0.000000     0.200000     0.400000     0.250000
     0.270000     0.400000     0.000000     0.300000     0.400000     0.250000
     0.360000     0.400000     0.000000     0.400000     0.400000     0.250000
     0.450000     0.400000     0.000000     0.500000     0.400000     0.250000
     0.560000     0.400000     0.000000     0.600000     0.400000     0.250000
     0.670000     0.400000     0.000000     0.700000     0.400000     0.250000
     0.780000     0.400000     0.000000     0.800000     0.400000     0.250000
     0.890000     0.400000     0.000000     0.900000     0.400000     0.250000
     1.000000     0.400000     0.000000     1.000000     0.400000     0.250000
     0.000000     0.500000     0.000000     0.000000     0.500000     0.250000
     0.090000     0.500000     0.000000     0.100000     0.500000     0.250000
     0.180000     0.500000     0.000000     0.200000     0.500000     0.250000
     0.270000     0.500000     0.000000     0.300000     0.500000     0.250000
     0.360000     0.500000     0.000000     0.400000     0.500000     0.250000
     0.450000     0.500000     0.000000     0.500000     0.500000     0.250000
     0.560000     0.500000     0.000000     0.600000     0.500000     0.250000
     0.670000     0.500000     0.000000     0.700000     0.500000     0.250000
     0.780000     0.500000     0.000000     0.800000     0.500000     0.250000
     0.890000     0.500000     0.000000     0.900000     0.500000     0.250000
     1.000000     0.500000     0.000000     1.000000     0.500000     0.250000
     0.000000     0.600000     0.000000     0.000000     0.600000     0.250000
     0.090000     0.600000     0.000000     0.100000     0.600000     0.250000
     0.180000     0.600000     0.000000     0.200000     0.600000     0.250000
     0.270000     0.600000     0.000000     0.300000     0.600000     0.250000
     0.360000     0.600000     0.000000     0.400000     0.600000     0.250000
     0.450000     0.600000     0.000000     0.500000     0.600000     0.250000
     0.560000     0.600000     0.000000     0.600000     0.600000     0.250000
     0.670000     0.600000     0.000000     0.700000     0.600000     0.250000
     0.780000     0.600000     0.000000     0.800000     0.600000     0.250000
     0.890000     0.600000     0.000000     0.900000     0.600000     0.250000
     1.000000     0.600000     0.000000     1.000000     0.600000     0.250000
     0.000000     0.700000     0.000000     0.000000     0.700000     0.250000
     0.090000     0.700000     0.000000     0.100000     0.700000     0.250000
     0.180000     0.700000     0.000000     0.200000     0.700000     0.250000
     0.270000     0.700000     0.000000     0.300000     0.700000     0.250000
     0.360000     0.700000     0.000000     0.400000     0.700000     0.250000
     0.450000     0.700000     0.000000     0.500000     0.700000     0.250000
     0.560000     0.700000     0.000000     0.600000     0.700000     0.250000
     0.670000     0.700000     0.000000     0.700000     0.700000     0.250000
     0.780000     0.700000     0.000000     0.800000     0.700000     0.250000
     0.890000     0.700000     0.000000     0.900000     0.700000     0.250000
     1.000000     0.700000     0.000000     1.000000     0.700000     0.250000
     0.000000     0.800000     0.000000     0.000000     0.800000     0.250000
     0.090000     0.800000     0.000000     0.100000     0.800000     0.250000
     0.180000     0.800000     0.000000     0.200000     0.800000     0.250000
     0.270000     0.800000     0.000000     0.300000     0.800000     0.250000
     0.360000     0.800000     0.000000     0.400000     0.800000     0.250000
     0.450000     0.800000     0.000000     0.500000     0.800000     0.250000
     0.560000     0.800000     0.000000     0.600000     0.800000     0.250000
     0.670000     0.800000     0.000000     0.700000     0.800000     0.250000
     0.780000     0.800000     0.000000     0.800000     0.800000     0.250000
     0.890000     0.800000     0.000000     0.900000     0.800000     0.250000
     1.000000     0.800000     0.000000     1.000000     0.800000     0.250000
     0.000000     0.900000     0.000000     0.000000     0.900000     0.250000
     0.090000     0.900000     0.000000     0.100000     0.900000     0.250000
     0.180000     0.900000     0.000000     0.200000     0.900000     0.250000
     0.270000     0.900000     0.000000     0.300000     0.900000     0.250000
     0.360000     0.900000     0.000000     0.400000     0.900000     0.250000
     0.450000     0.900000     0.000000     0.500000     0.900000     0.250000
     0.560000     0.900000     0.000000     0.600000     0.900000     0.250000
     0.670000     0.900000     0.000000     0.700000     0.900000     0.250000
     0.780000     0.900000     0.000000     0.800000     0.900000     0.250000
     0.890000     0.900000     0.000000     0.900000     0.900000     0.250000
     1.000000     0.900000     0.000000     1.000000     0.900000     0.250000
     0.000000     1.000000     0.000000     0.000000     1.000000     0.250000
     0.090000     1.000000     0.000000     0.100000     1.000000     0.250000
     0.180000     1.000000     0.000000     0.200000     1.000000     0.250000
     0.270000     1.000000     0.000000     0.300000     1.000000     0.250000
     0.360000     1.000000     0.000000     0.400000     1.000000     0.250000
     0.450000     1.000000     0.000000     0.500000     1.000000     0.250000
     0.560000     1.000000     0.000000     0.600000     1.000000     0.250000
     0.670000     1.000000     0.000000     0.700000     1.000000     0.250000
     0.780000     1.000000     0.000000     0.800000     1.000000     0.250000
     0.890000     1.000000     0.000000     0.900000     1.000000     0.250000
     1.000000     1.000000     0.000000     1.000000     1.000000     0.250000
/

ZCORN
     0.000000     0.000000     0.000000     0.000000     0.000000     0.000000     0.000000     0.000000
     0.000000     0.000000    -0.125000    -0.125000    -0.125000    -0.125000    -0.125000    -0.125000
    -0.125000    -0.125000    -0.125000    -0.125000     0.000000     0.000000     0.000000     0.000000
     0.000000     0.000000     0.000000     0.000000     0.000000     0.000000    -0.100000    -0.100000
    -0.100000    -0.100000    -0.100000    -0.100000    -0.100000    -0.100000    -0.100000    -0.100000
     0.000000     0.000000     0.000000     0.000000     0.000000     0.000000     0.000000     0.000000
     0.000000     0.000000    -0.100000    -0.100000    -0.100000    -0.100000    -0.100000    -0.100000
    -0.100000    -0.100000    -0.100000    -0.100000     0.000000     0.000000     0.000000     0.000000
     0.000000     0.000000     0.000000     0.000000     0.000000     0.000000    -0.075000    -0.075000
    -0.075000    -0.075000    -0.075000    -0.075000    -0.075000    -0.075000    -0.075000    -0.075000
     0.000000     0.000000     0.000000     0.000000     0.000000     0.000000     0.000000     0.000000
     0.000000     0.000000    -0.075000    -0.075000    -0.075000    -0.075000    -0.075000    -0.075000
    -0.075000    -0.075000    -0.075000    -0.075000     0.000000     0.000000     0.000000     0.000000
     0.000000     0.000000     0.000000     0.000000     0.000000     0.000000    -0.050000    -0.050000
    -0.050000    -0.050000    -0.050000    -0.050000    -0.050000    -0.050000    -0.050000    -0.050000
     0.000000     0.000000     0.000000     0.000000     0.000000     0.000000     0.000000     0.000000
     0.000000     0.000000    -0.050000    -0.050000    -0.050000    -0.050000    -0.050000    -0.050000
    -0.050000    -0.050000    -0.050000    -0.050000     0.000000     0.000000     0.000000     0.000000
     0.000000     0.000000     0.000000     0.000000     0.000000     0.000000    -0.025000    -0.025000
    -0.025000    -0.025000    -0.025000    -0.025000    -0.025000    -0.025000    -0.025000    -0.025000
     0.000000     0.000000     0.000000     0.000000     0.000000     0.000000     0.000000     0.000000
     0.000000     0.000000    -0.025000    -0.025000    -0.025000    -0.025000    -0.025000    -0.025000
    -0.025000    -0.025000    -0.025000    -0.025000     0.000000     0.000000     0.000000     0.000000
     0.000000     0.000000     0.000000     0.000000     0.000000     0.000000     0.000000     0.000000
     0.000000     0.000000     0.000000     0.000000     0.000000     0.000000     0.000000     0.000000
     0.000000     0.000000     0.000000     0.000000     0.000000     0.000000     0.000000     0.000000
     0.000000     0.000000     0.000000     0.000000     0.000000     0.000000     0.000000     0.000000
     0.000000     0.000000     0.000000     0.000000     0.000000     0.000000     0.000000     0.000000
     0.000000     0.000000     0.000000     0.000000     0.000000     0.000000     0.025000     0.025000
     0.025000     0.025000     0.025000     0.025000     0.025000     0.025000     0.025000     0.025000
     0.000000     0.000000     0.000000     0.000000     0.000000     0.000000     0.000000     0.000000
     0.000000     0.000000     0.025000     0.025000     0.025000     0.025000     0.025000     0.025000
     0.025000     0.025000     0.025000     0.025000     0.000000     0.000000     0.000000     0.000000
     0.000000     0.000000     0.000000     0.000000     0.000000     0.000000     0.050000     0.050000
     0.050000     0.050000     0.050000     0.050000     0.050000     0.050000     0.050000     0.050000
     0.000000     0.000000     0.000000     0.000000     0.000000     0.000000     0.000000     0.000000
     0.000000     0.000000     0.050000     0.050000     0.050000     0.050000     0.050000     0.050000
     0.050000     0.050000     0.050000     0.050000     0.000000     0.000000     0.000000     0.000000
     0.000000     0.000000     0.000000     0.000000     0.000000     0.000000     0.075000     0.075000
     0.075000     0.075000     0.075000     0.075000     0.075000     0.075000     0.075000     0.075000
     0.000000     0.000000     0.000000     0.000000     0.000000     0.000000     0.000000     0.000000
     0.000000     0.000000     0.075000     0.075000     0.075000     0.075000     0.075000     0.075000
     0.075000     0.075000     0.075000     0.075000     0.000000     0.000000     0.000000     0.000000
     0.000000     0.000000     0.000000     0.000000     0.000000     0.000000     0.100000     0.100000
     0.100000     0.100000     0.100000     0.100000     0.100000     0.100000     0.100000     0.100000
     0.000000     0.000000     0.000000     0.000000     0.000000     0.000000     0.000000     0.000000
     0.000000     0.000000     0.100000     0.100000     0.100000     0.100000     0.100000     0.100000
     0.100000     0.100000     0.100000     0.100000     0.000000     0.000000     0.000000     0.000000
     0.000000     0.000000     0.000000     0.000000     0.000000     0.000000     0.125000     0.125000
     0.125000     0.125000     0.125000     0.125000     0.125000     0.125000     0.125000     0.125000
     0.083333     0.083333     0.083333     0.083333     0.083333     0.083333     0.083333     0.083333
     0.083333     0.083333    -0.041667    -0.041667    -0.041667    -0.041667    -0.041667    -0.041667
    -0.041667    -0.041667    -0.041667    -0.041667     0.083333     0.083333     0.083333     0.083333
     0.083333     0.083333     0.083333     0.083333     0.083333     0.083333    -0.016667    -0.016667
    -0.016667    -0.016667    -0.016667    -0.016667    -0.016667    -0.016667    -0.016667    -0.016667
     0.083333     0.083333     0.083333     0.083333     0.083333     0.083333     0.083333     0.083333
     0.083333     0.083333    -0.016667    -0.016667    -0.016667    -0.016667    -0.016667    -0.016667
    -0.016667    -0.016667    -0.016667    -0.016667     0.083333     0.083333     0.083333     0.083333
     0.083333     0.083333     0.083333     0.083333     0.083333     0.083333     0.008333     0.008333
     0.008333     0.008333     0.008333     0.008333     0.008333     0.008333     0.008333     0.008333
     0.083333     0.083333     0.083333     0.083333     0.083333     0.083333     0.083333     0.083333
     0.083333     0.083333     0.008333     0.008333     0.008333     0.008333     0.008333     0.008333
     0.008333     0.008333     0.008333     0.008333     0.083333     0.083333     0.083333     0.083333
     0.083333     0.083333     0.083333     0.083333     0.083333     0.083333     0.033333     0.033333
     0.033333     0.033333     0.033333     0.033333     0.033333     0.033333     0.033333     0.033333
     0.083333     0.083333     0.083333     0.083333     0.083333     0.083333     0.083333     0.083333
     0.083333     0.083333     0.033333     0.033333     0.033333     0.033333     0.033333     0.033333
     0.033333     0.033333     0.033333     0.033333     0.083333     0.083333     0.083333     0.083333
     0.083333     0.083333     0.083333     0.083333     0.083333     0.083333     0.058333     0.058333
     0.058333     0.058333     0.058333     0.058333     0.058333     0.058333     0.058333     0.058333
     0.083333     0.083333     0.083333     0.083333     0.083333     0.083333     0.083333     0.083333
     0.083333     0.083333     0.058333     0.058333     0.058333     0.058333     0.058333     0.058333
     0.058333     0.058333     0.058333     0.058333     0.083333     0.083333     0.083333     0.083333
     0.083333     0.083333     0.083333     0.083333     0.083333     0.083333     0.083333     0.083333
     0.083333     0.083333     0.083333     0.083333     0.083333     0.083333     0.083333     0.083333
     0.083333     0.083333     0.083333     0.083333     0.083333     0.083333     0.083333     0.083333
     0.083333     0.083333     0.083333     0.083333     0.083333     0.083333     0.083333     0.083333
     0.083333     0.083333     0.083333     0.083333     0.083333     0.083333     0.083333     0.083333
     0.083333     0.083333     0.083333     0.083333     0.083333     0.083333     0.108333     0.108333
     0.108333     0.108333     0.108333     0.108333     0.108333     0.108333     0.108333     0.108333
     0.083333     0.083333     0.083333     0.083333     0.083333     0.083333     0.083333     0.083333
     0.083333     0.083333     0.108333     0.108333     0.108333     0.108333     0.108333     0.108333
     0.108333     0.108333     0.108333     0.108333     0.083333     0.083333     0.083333     0.083333
     0.083333     0.083333     0.083333     0.083333     0.083333     0.083333     0.133333     0.133333
     0.133333     0.133333     0.133333     0.133333     0.133333     0.133333     0.133333     0.133333
     0.083333     0.083333     0.083333     0.083333     0.083333     0.083333     0.083333     0.083333
     0.083333     0.083333     0.133333     0.133333     0.133333     0.133333     0.133333     0.133333
     0.133333     0.133333     0.133333     0.133333     0.083333     0.083333     0.083333     0.083333
     0.083333     0.083333     0.083333     0.083333     0.083333     0.083333     0.158333     0.158333
     0.158333     0.158333     0.158333     0.158333     0.158333     0.158333     0.158333     0.158333
     0.083333     0.083333     0.083333     0.083333     0.083333     0.083333     0.083333     0.083333
     0.083333     0.083333     0.158333     0.158333     0.158333     0.158333     0.158333     0.158333
     0.158333     0.158333     0.158333     0.158333     0.083333     0.083333     0.083333     0.083333
     0.083333     0.083333     0.083333     0.083333     0.083333     0.083333     0.183333     0.183333
     0.183333     0.183333     0.183333     0.183333     0.183333     0.183333     0.183333     0.183333
     0.083333     0.083333     0.083333     0.083333     0.083333     0.083333     0.083333     0.083333
     0.083333     0.083333     0.183333     0.183333     0.183333     0.183333     0.183333     0.183333
     0.183333     0.183333     0.183333     0.183333     0.083333     0.083333     0.083333     0.083333
     0.083333     0.083333     0.083333     0.083333     0.083333     0.083333     0.208333     0.208333
     0.208333     0.208333     0.208333     0.208333     0.208333     0.208333     0.208333     0.208333
     0.083333     0.083333     0.083333     0.083333     0.083333     0.083333     0.083333     0.083333
     0.083333     0.083333    -0.041667    -0.041667    -0.041667    -0.041667    -0.041667    -0.041667
    -0.041667    -0.041667    -0.041667    -0.041667     0.083333     0.083333     0.083333     0.083333
     0.083333     0.083333     0.083333     0.083333     0.083333     0.083333    -0.016667    -0.016667
    -0.016667    -0.016667    -0.016667    -0.016667    -0.016667    -0.016667    -0.016667    -0.016667
     0.083333     0.083333     0.083333     0.083333     0.083333     0.083333     0.083333     0.083333
     0.083333     0.083333    -0.016667    -0.016667    -0.016667    -0.016667    -0.016667    -0.016667
    -0.016667    -0.016667    -0.016667    -0.016667     0.083333     0.083333     0.083333     0.083333
     0.083333     0.083333     0.083333     0.083333     0.083333     0.083333     0.008333     0.008333
     0.008333     0.008333     0.008333     0.008333     0.008333     0.008333     0.008333     0.008333
     0.083333     0.083333     0.083333     0.083333     0.083333     0.083333     0.083333     0.083333
     0.083333     0.083333     0.008333     0.008333     0.008333     0.008333     0.008333     0.008333
     0.008333     0.008333     0.008333     0.008333     0.083333     0.083333     0.083333     0.083333
     0.083333     0.083333     0.083333     0.083333     0.083333     0.083333     0.033333     0.033333
     0.033333     0.033333     0.033333     0.033333     0.033333     0.033333     0.033333     0.033333
     0.083333     0.083333     0.083333     0.083333     0.083333     0.083333     0.083333     0.083333
     0.083333     0.083333     0.033333     0.033333     0.033333     0.033333     0.033333     0.033333
     0.033333     0.033333     0.033333     0.033333     0.083333     0.083333     0.083333     0.083333
     0.083333     0.083333     0.083333     0.083333     0.083333     0.083333     0.058333     0.058333
     0.058333     0.058333     0.058333     0.058333     0.058333     0.058333     0.058333     0.058333
     0.083333     0.083333     0.083333     0.083333     0.083333     0.083333     0.083333     0.083333
     0.083333     0.083333     0.058333     0.058333     0.058333     0.058333     0.058333     0.058333
     0.058333     0.058333     0.058333     0.058333     0.083333     0.083333     0.083333     0.083333
     0.083333     0.083333     0.083333     0.083333     0.083333     0.083333     0.083333     0.083333
     0.083333     0.083333     0.083333     0.083333     0.083333     0.083333     0.083333     0.083333
     0.083333     0.083333     0.083333     0.083333     0.083333     0.083333     0.083333     0.083333
     0.083333     0.083333     0.083333     0.083333     0.083333     0.083333     0.083333     0.083333
     0.083333     0.083333     0.083333     0.083333     0.083333     0.083333     0.083333     0.083333
     0.083333     0.083333     0.083333     0.083333     0.083333     0.083333     0.108333     0.108333
     0.108333     0.108333     0.108333     0.108333     0.108333     0.108333     0.108333     0.108333
     0.083333     0.083333     0.083333     0.083333     0.083333     0.083333     0.083333     0.083333
     0.083333     0.083333     0.108333     0.108333     0.108333     0.108333     0.108333     0.108333
     0.108333     0.108333     0.108333     0.108333     0.083333     0.083333     0.083333     0.083333
     0.083333     0.083333     0.083333     0.083333     0.083333     0.083333     0.133333     0.133333
     0.133333     0.133333     0.133333     0.133333     0.133333     0.133333     0.133333     0.133333
     0.083333     0.083333     0.083333     0.083333     0.083333     0.083333     0.083333     0.083333
     0.083333     0.083333     0.133333     0.133333     0.133333     0.133333     0.133333     0.133333
     0.133333     0.133333     0.133333     0.133333     0.083333     0.083333     0.083333     0.083333
     0.083333     0.083333     0.083333     0.083333     0.083333     0.083333     0.158333     0.158333
     0.158333     0.158333     0.158333     0.158333     0.158333     0.158333     0.158333     0.158333
     0.083333     0.083333     0.083333     0.083333     0.083333     0.083333     0.083333     0.083333
     0.083333     0.083333     0.158333     0.158333     0.158333     0.158333     0.158333     0.158333
     0.158333     0.158333     0.158333     0.158333     0.083333     0.083333     0.083333     0.083333
     0.083333     0.083333     0.083333     0.083333     0.083333     0.083333     0.183333     0.183333
     0.183333     0.183333     0.183333     0.183333     0.183333     0.183333     0.183333     0.183333
     0.083333     0.083333     0.083333     0.083333     0.083333     0.083333     0.083333     0.083333
     0.083333     0.083333     0.183333     0.183333     0.183333     0.183333     0.183333     0.183333
     0.183333     0.183333     0.183333     0.183333     0.083333     0.083333     0.083333     0.083333
     0.083333     0.083333     0.083333     0.083333     0.083333     0.083333     0.208333     0.208333
     0.208333     0.208333     0.208333     0.208333     0.208333     0.208333     0.208333     0.208333
     0.166667     0.166667     0.166667     0.166667     0.166667     0.166667     0.166667     0.166667
     0.166667     0.166667     0.041667     0.041667     0.041667     0.041667     0.041667     0.041667
     0.041667     0.041667     0.041667     0.041667     0.166667     0.166667     0.166667     0.166667
     0.166667     0.166667     0.166667     0.166667     0.166667     0.166667     0.066667     0.066667
     0.066667     0.066667     0.066667     0.066667     0.066667     0.066667     0.066667     0.066667
     0.166667     0.166667     0.166667     0.166667     0.166667     0.166667     0.166667     0.166667
     0.166667     0.166667     0.066667     0.066667     0.066667     0.066667     0.066667     0.066667
     0.066667     0.066667     0.066667     0.066667     0.166667     0.166667     0.166667     0.166667
     0.166667     0.166667     0.166667     0.166667     0.166667     0.166667     0.091667     0.091667
     0.091667     0.091667     0.091667     0.091667     0.091667     0.091667     0.091667     0.091667
     0.166667     0.166667     0.166667     0.166667     0.166667     0.166667     0.166667     0.166667
     0.166667     0.166667     0.091667     0.091667     0.091667     0.091667     0.091667     0.091667
     0.091667     0.091667     0.091667     0.091667     0.166667     0.166667     0.166667     0.166667
     0.166667     0.166667     0.166667     0.166667     0.166667     0.166667     0.116667     0.116667
     0.116667     0.116667     0.116667     0.116667     0.116667     0.116667     0.116667     0.116667
     0.166667     0.166667     0.166667     0.166667     0.166667     0.166667     0.166667     0.166667
     0.166667     0.166667     0.116667     0.116667     0.116667     0.116667     0.116667     0.116667
     0.116667     0.116667     0.116667     0.116667     0.166667     0.166667     0.166667     0.166667
     0.166667     0.166667     0.166667     0.166667     0.166667     0.166667     0.141667     0.141667
     0.141667     0.141667     0.141667     0.141667     0.141667     0.141667     0.141667     0.141667
     0.166667     0.166667     0.166667     0.166667     0.166667     0.166667     0.166667     0.166667
     0.166667     0.166667     0.141667     0.141667     0.141667     0.141667     0.141667     0.141667
     0.141667     0.141667     0.141667     0.141667     0.166667     0.166667     0.166667     0.166667
     0.166667     0.166667     0.166667     0.166667     0.166667     0.166667     0.166667     0.166667
     0.166667     0.166667     0.166667     0.166667     0.166667     0.166667     0.166667     0.166667
     0.166667     0.166667     0.166667     0.166667     0.166667     0.166667     0.166667     0.166667
     0.166667     0.166667     0.166667     0.166667     0.166667     0.166667     0.166667     0.166667
     0.166667     0.166667     0.166667     0.166667     0.166667     0.166667     0.166667     0.166667
     0.166667     0.166667     0.166667     0.166667     0.166667     0.166667     0.191667     0.191667
     0.191667     0.191667     0.191667     0.191667     0.191667     0.191667     0.191667     0.191667
     0.166667     0.166667     0.166667     0.166667     0.166667     0.166667     0.166667     0.166667
     0.166667     0.166667     0.191667     0.191667     0.191667     0.191667     0.191667     0.191667
     0.191667     0.191667     0.191667     0.191667     0.166667     0.166667     0.166667     0.166667
     0.166667     0.166667     0.166667     0.166667     0.166667     0.166667     0.216667     0.216667
     0.216667     0.216667     0.216667     0.216667     0.216667     0.216667     0.216667     0.216667
     0.166667     0.166667     0.166667     0.166667     0.166667     0.166667     0.166667     0.166667
     0.166667     0.166667     0.216667     0.216667     0.216667     0.216667     0.216667     0.216667
     0.216667     0.216667     0.216667     0.216667     0.166667     0.166667     0.166667     0.166667
     0.166667     0.166667     0.166667     0.166667     0.166667     0.166667     0.241667     0.241667
     0.241667     0.241667     0.241667     0.241667     0.241667     0.241667     0.241667     0.241667