-- The following file was written from MATLAB using the MRST toolbox.

SPECGRID
10 10 3 1 F
/

COORD
     0.000000     0.000000     0.000000     0.000000     0.000000     0.250000
     0.090000     0.000000     0.000000     0.100000     0.000000     0.250000
     0.180000     0.000000     0.000000     0.200000     0.000000     0.250000
     0.270000     0.000000     0.000000     0.300000     0.000000     0.250000
     0.360000     0.000000     0.000000     0.400000     0.000000     0.250000
     0.450000     0.000000     0.000000     0.500000     0.000000     0.250000
     0.560000     0.000000     0.000000     0.600000     0.000000     0.250000
     0.670000     0.000000     0.000000     0.700000     0.000000     0.250000
     0.780000     0.000000     0.000000     0.800000     0.000000     0.250000
     0.890000     0.000000     0.000000     0.900000     0.000000     0.250000
     1.000000     0.000000     0.000000     1.000000     0.000000     0.250000
     0.000000     0.100000     0.000000     0.000000     0.100000     0.250000
     0.090000     0.100000     0.000000     0.100000     0.100000     0.250000
     0.180000     0.100000     0.000000     0.200000     0.100000     0.250000
     0.270000     0.100000     0.000000     0.300000     0.100000     0.250000
     0.360000     0.100000     0.000000     0.400000     0.100000     0.250000
     0.450000     0.100000     0.000000     0.500000     0.100000     0.250000
     0.560000     0.100000     0.000000     0.600000     0.100000     0.250000
     0.670000     0.100000     0.000000     0.700000     0.100000     0.250000
     0.780000     0.100000     0.000000     0.800000     0.100000     0.250000
     0.890000     0.100000     0.000000     0.900000     0.100000     0.250000
     1.000000     0.100000     0.000000     1.000000     0.100000     0.250000
     0.000000     0.200000     0.000000     0.000000     0.200000     0.250000
     0.090000     0.200000     0.000000     0.100000     0.200000     0.250000
     0.180000     0.200000     0.000000     0.200000     0.200000     0.250000
     0.270000     0.200000     0.000000     0.300000     0.200000     0.250000
     0.360000     0.200000     0.000000     0.400000     0.200000     0.250000
     0.450000     0.200000     0.000000     0.500000     0.200000     0.250000
     0.560000     0.200000     0.000000     0.600000     0.200000     0.250000
     0.670000     0.200000     0.000000     0.700000     0.200000     0.250000
     0.780000     0.200000     0.000000     0.800000     0.200000     0.250000
     0.890000     0.200000     0.000000     0.900000     0.200000     0.250000
     1.000000     0.200000     0.000000     1.000000     0.200000     0.250000
     0.000000     0.300000     0.000000     0.000000     0.300000     0.250000
     0.090000     0.300000     0.000000     0.100000     0.300000     0.250000
     0.180000     0.300000     0.000000     0.200000     0.300000     0.250000
     0.270000     0.300000     0.000000     0.300000     0.300000     0.250000
     0.360000     0.300000     0.000000     0.400000     0.300000     0.250000
     0.450000     0.300000     0.000000     0.500000     0.300000     0.250000
     0.560000     0.300000     0.000000     0.600000     0.300000     0.250000
     0.670000     0.300000     0.000000     0.700000     0.300000     0.250000
     0.780000     0.300000     0.000000     0.800000     0.300000     0.250000
     0.890000     0.300000     0.000000     0.900000     0.300000     0.250000
     1.000000     0.300000     0.000000     1.000000     0.300000     0.250000
     0.000000     0.400000     0.000000     0.000000     0.400000     0.250000
     0.090000     0.400000     0.000000     0.100000     0.400000     0.250000
     0.180000     0.400000     0.000000     0.200000     0.400000     0.250000
     0.270000     0.400000     0.000000     0.300000     0.400000     0.250000
     0.360000     0.400000     0.000000     0.400000     0.400000     0.250000
     0.450000     0.400000     0.000000     0.500000     0.400000     0.250000
     0.560000     0.400000     0.000000     0.600000     0.400000     0.250000
     0.670000     0.400000     0.000000     0.700000     0.400000     0.250000
     0.780000     0.400000     0.000000     0.800000     0.400000     0.250000
     0.890000     0.400000     0.000000     0.900000     0.400000     0.250000
     1.000000     0.400000     0.000000     1.000000     0.400000     0.250000
     0.000000     0.500000     0.000000     0.000000     0.500000     0.250000
     0.090000     0.500000     0.000000     0.100000     0.500000     0.250000
     0.180000     0.500000     0.000000     0.200000     0.500000     0.250000
     0.270000     0.500000     0.000000     0.300000     0.500000     0.250000
     0.360000     0.500000     0.000000     0.400000     0.500000     0.250000
     0.450000     0.500000     0.000000     0.500000     0.500000     0.250000
     0.560000     0.500000     0.000000     0.600000     0.500000     0.250000
     0.670000     0.500000     0.000000     0.700000     0.500000     0.250000
     0.780000     0.500000     0.000000     0.800000     0.500000     0.250000
     0.890000     0.500000     0.000000     0.900000     0.500000     0.250000
     1.000000     0.500000     0.000000     1.000000     0.500000     0.250000
     0.000000     0.600000     0.000000     0.000000     0.600000     0.250000
     0.090000     0.600000     0.000000     0.100000     0.600000     0.250000
     0.180000     0.600000     0.000000     0.200000     0.600000     0.250000
     0.270000     0.600000     0.000000     0.300000     0.600000     0.250000
     0.360000     0.600000     0.000000     0.400000     0.600000     0.250000
     0.450000     0.600000     0.000000     0.500000     0.600000     0.250000
     0.560000     0.600000     0.000000     0.600000     0.600000     0.250000
     0.670000     0.600000     0.000000     0.700000     0.600000     0.250000
     0.780000     0.600000     0.000000     0.800000     0.600000     0.250000
     0.890000     0.600000     0.000000     0.900000     0.600000     0.250000
     1.000000     0.600000     0.000000     1.000000     0.600000     0.250000
     0.000000     0.700000     0.000000     0.000000     0.700000     0.250000
     0.090000     0.700000     0.000000     0.100000     0.700000     0.250000
     0.180000     0.700000     0.000000     0.200000     0.700000     0.250000
     0.270000     0.700000     0.000000     0.300000     0.700000     0.250000
     0.360000     0.700000     0.000000     0.400000     0.700000     0.250000
     0.450000     0.700000     0.000000     0.500000     0.700000     0.250000
     0.560000     0.700000     0.000000     0.600000     0.700000     0.250000
     0.670000     0.700000     0.000000     0.700000     0.700000     0.250000
     0.780000     0.700000     0.000000     0.800000     0.700000     0.250000
     0.890000     0.700000     0.000000     0.900000     0.700000     0.250000
     1.000000     0.700000     0.000000     1.000000     0.700000     0.250000
     0.000000     0.800000     0.000000     0.000000     0.800000     0.250000
     0.090000     0.800000     0.000000     0.100000     0.800000     0.250000
     0.180000     0.800000     0.000000     0.200000     0.800000     0.250000
     0.270000     0.800000     0.000000     0.300000     0.800000     0.250000
     0.360000     0.800000     0.000000     0.400000     0.800000     0.250000
     0.450000     0.800000     0.000000     0.500000     0.800000     0.250000
     0.560000     0.800000     0.000000     0.600000     0.800000     0.250000
     0.670000     0.800000     0.000000     0.700000     0.800000     0.250000
     0.780000     0.800000     0.000000     0.800000     0.800000     0.250000
     0.890000     0.800000     0.000000     0.900000     0.800000     0.250000
     1.000000     0.800000     0.000000     1.000000     0.800000     0.250000
     0.000000     0.900000     0.000000     0.000000     0.900000     0.250000
     0.090000     0.900000     0.000000     0.100000     0.900000     0.250000
     0.180000     0.900000     0.000000     0.200000     0.900000     0.250000
     0.270000     0.900000     0.000000     0.300000     0.900000     0.250000
     0.360000     0.900000     0.000000     0.400000     0.900000     0.250000
     0.450000     0.900000     0.000000     0.500000     0.900000     0.250000
     0.560000     0.900000     0.000000     0.600000     0.900000     0.250000
     0.670000     0.900000     0.000000     0.700000     0.900000     0.250000
     0.780000     0.900000     0.000000     0.800000     0.900000     0.250000
     0.890000     0.900000     0.000000     0.900000     0.900000     0.250000
     1.000000     0.900000     0.000000     1.000000     0.900000     0.250000
     0.000000     1.000000     0.000000     0.000000     1.000000     0.250000
     0.090000     1.000000     0.000000     0.100000     1.000000     0.250000
     0.180000     1.000000     0.000000     0.200000     1.000000     0.250000
     0.270000     1.000000     0.000000     0.300000     1.000000     0.250000
     0.360000     1.000000     0.000000     0.400000     1.000000     0.250000
     0.450000     1.000000     0.000000     0.500000     1.000000     0.250000
     0.560000     1.000000     0.000000     0.600000     1.000000     0.250000
     0.670000     1.000000     0.000000     0.700000     1.000000     0.250000
     0.780000     1.000000     0.000000     0.800000     1.000000     0.250000
     0.890000     1.000000     0.000000     0.900000     1.000000     0.250000
     1.000000     1.000000     0.000000     1.000000     1.000000     0.250000
/

ZCORN
     0.000000     0.000000     0.000000     0.000000     0.000000     0.000000     0.000000     0.000000
     0.000000     0.000000     0.150000     0.150000     0.150000     0.150000     0.150000     0.150000
     0.150000     0.150000     0.150000     0.150000     0.000000     0.000000     0.000000     0.000000
     0.000000     0.000000     0.000000     0.000000     0.000000     0.000000     0.150000     0.150000
     0.150000     0.150000     0.150000     0.150000     0.150000     0.150000     0.150000     0.150000
     0.000000     0.000000     0.000000     0.000000     0.000000     0.000000     0.000000     0.000000
     0.000000     0.000000     0.150000     0.150000     0.150000     0.150000     0.150000     0.150000
     0.150000     0.150000     0.150000     0.150000     0.000000     0.000000     0.000000     0.000000
     0.000000     0.000000     0.000000     0.000000     0.000000     0.000000     0.150000     0.150000
     0.150000     0.150000     0.150000     0.150000     0.150000     0.150000     0.150000     0.150000
     0.000000     0.000000     0.000000     0.000000     0.000000     0.000000     0.000000     0.000000
     0.000000     0.000000     0.150000     0.150000     0.150000     0.150000     0.150000     0.150000
     0.150000     0.150000     0.150000     0.150000     0.000000     0.000000     0.000000     0.000000
     0.000000     0.000000     0.000000     0.000000     0.000000     0.000000     0.150000     0.150000
     0.150000     0.150000     0.150000     0.150000     0.150000     0.150000     0.150000     0.150000
     0.000000     0.000000     0.000000     0.000000     0.000000     0.000000     0.000000     0.000000
     0.000000     0.000000     0.150000     0.150000     0.150000     0.150000     0.150000     0.150000
     0.150000     0.150000     0.150000     0.150000     0.000000     0.000000     0.000000     0.000000
     0.000000     0.000000     0.000000     0.000000     0.000000     0.000000     0.150000     0.150000
     0.150000     0.150000     0.150000     0.150000     0.150000     0.150000     0.150000     0.150000
     0.000000     0.000000     0.000000     0.000000     0.000000     0.000000     0.000000     0.000000
     0.000000     0.000000     0.150000     0.150000     0.150000     0.150000     0.150000     0.150000
     0.150000     0.150000     0.150000     0.150000     0.000000     0.000000     0.000000     0.000000
     0.000000     0.000000     0.000000     0.000000     0.000000     0.000000     0.150000     0.150000
     0.150000     0.150000     0.150000     0.150000     0.150000     0.150000     0.150000     0.150000
     0.000000     0.000000     0.000000     0.000000     0.000000     0.000000     0.000000     0.000000
     0.000000     0.000000     0.150000     0.150000     0.150000     0.150000     0.150000     0.150000
     0.150000     0.150000     0.150000     0.150000     0.000000     0.000000     0.000000     0.000000
     0.000000     0.000000     0.000000     0.000000     0.000000     0.000000     0.150000     0.150000
     0.150000     0.150000     0.150000     0.150000     0.150000     0.150000     0.150000     0.150000
     0.000000     0.000000     0.000000     0.000000     0.000000     0.000000     0.000000     0.000000
     0.000000     0.000000     0.150000     0.150000     0.150000     0.150000     0.150000     0.150000
     0.150000     0.150000     0.150000     0.150000     0.000000     0.000000     0.000000     0.000000
     0.000000     0.000000     0.000000     0.000000     0.000000     0.000000     0.150000     0.150000
     0.150000     0.150000     0.150000     0.150000     0.150000     0.150000     0.150000     0.150000
     0.000000     0.000000     0.000000     0.000000     0.000000     0.000000     0.000000     0.000000
     0.000000     0.000000     0.150000     0.150000     0.150000     0.150000     0.150000     0.150000
     0.150000     0.150000     0.150000     0.150000     0.000000     0.000000     0.000000     0.000000
     0.000000     0.000000     0.000000     0.000000     0.000000     0.000000     0.150000     0.150000
     0.150000     0.150000     0.150000     0.150000     0.150000     0.150000     0.150000     0.150000
     0.000000     0.000000     0.000000     0.000000     0.000000     0.000000     0.000000     0.000000
     0.000000     0.000000     0.150000     0.150000     0.150000     0.150000     0.150000     0.150000
     0.150000     0.150000     0.150000     0.150000     0.000000     0.000000     0.000000     0.000000
     0.000000     0.000000     0.000000     0.000000     0.000000     0.000000     0.150000     0.150000
     0.150000     0.150000     0.150000     0.150000     0.150000     0.150000     0.150000     0.150000
     0.000000     0.000000     0.000000     0.000000     0.000000     0.000000     0.000000     0.000000
     0.000000     0.000000     0.150000     0.150000     0.150000     0.150000     0.150000     0.150000
     0.150000     0.150000     0.150000     0.150000     0.000000     0.000000     0.000000     0.000000
     0.000000     0.000000     0.000000     0.000000     0.000000     0.000000     0.150000     0.150000
     0.150000     0.150000     0.150000     0.150000     0.150000     0.150000     0.150000     0.150000
     0.083333     0.083333     0.083333     0.083333     0.083333     0.083333     0.083333     0.083333
     0.083333     0.083333     0.233333     0.233333     0.233333     0.233333     0.233333     0.233333
     0.233333     0.233333     0.233333     0.233333     0.083333     0.083333     0.083333     0.083333
     0.083333     0.083333     0.083333     0.083333     0.083333     0.083333     0.233333     0.233333
     0.233333     0.233333     0.233333     0.233333     0.233333     0.233333     0.233333     0.233333
     0.083333     0.083333     0.083333     0.083333     0.083333     0.083333     0.083333     0.083333
     0.083333     0.083333     0.233333     0.233333     0.233333     0.233333     0.233333     0.233333
     0.233333     0.233333     0.233333     0.233333     0.083333     0.083333     0.083333     0.083333
     0.083333     0.083333     0.083333     0.083333     0.083333     0.083333     0.233333     0.233333
     0.233333     0.233333     0.233333     0.233333     0.233333     0.233333     0.233333     0.233333
     0.083333     0.083333     0.083333     0.083333     0.083333     0.083333     0.083333     0.083333
     0.083333     0.083333     0.233333     0.233333     0.233333     0.233333     0.233333     0.233333
     0.233333     0.233333     0.233333     0.233333     0.083333     0.083333     0.083333     0.083333
     0.083333     0.083333     0.083333     0.083333     0.083333     0.083333     0.233333     0.233333
     0.233333     0.233333     0.233333     0.233333     0.233333     0.233333     0.233333     0.233333
     0.083333     0.083333     0.083333     0.083333     0.083333     0.083333     0.083333     0.083333
     0.083333     0.083333     0.233333     0.233333     0.233333     0.233333     0.233333     0.233333
     0.233333     0.233333     0.233333     0.233333     0.083333     0.083333     0.083333     0.083333
     0.083333     0.083333     0.083333     0.083333     0.083333     0.083333     0.233333     0.233333
     0.233333     0.233333     0.233333     0.233333     0.233333     0.233333     0.233333     0.233333
     0.083333     0.083333     0.083333     0.083333     0.083333     0.083333     0.083333     0.083333
     0.083333     0.083333     0.233333     0.233333     0.233333     0.233333     0.233333     0.233333
     0.233333     0.233333     0.233333     0.233333     0.083333     0.083333     0.083333     0.083333
     0.083333     0.083333     0.083333     0.083333     0.083333     0.083333     0.233333     0.233333
     0.233333     0.233333     0.233333     0.233333     0.233333     0.233333     0.233333     0.233333
     0.083333     0.083333     0.083333     0.083333     0.083333     0.083333     0.083333     0.083333
     0.083333     0.083333     0.233333     0.233333     0.233333     0.233333     0.233333     0.233333
     0.233333     0.233333     0.233333     0.233333     0.083333     0.083333     0.083333     0.083333
     0.083333     0.083333     0.083333     0.083333     0.083333     0.083333     0.233333     0.233333
     0.233333     0.233333     0.233333     0.233333     0.233333     0.233333     0.233333     0.233333
     0.083333     0.083333     0.083333     0.083333     0.083333     0.083333     0.083333     0.083333
     0.083333     0.083333     0.233333     0.233333     0.233333     0.233333     0.233333     0.233333
     0.233333     0.233333     0.233333     0.233333     0.083333     0.083333     0.083333     0.083333
     0.083333     0.083333     0.083333     0.083333     0.083333     0.083333     0.233333     0.233333
     0.233333     0.233333     0.233333     0.233333     0.233333     0.233333     0.233333     0.233333
     0.083333     0.083333     0.083333     0.083333     0.083333     0.083333     0.083333     0.083333
     0.083333     0.083333     0.233333     0.233333     0.233333     0.233333     0.233333     0.233333
     0.233333     0.233333     0.233333     0.233333     0.083333     0.083333     0.083333     0.083333
     0.083333     0.083333     0.083333     0.083333     0.083333     0.083333     0.233333     0.233333
     0.233333     0.233333     0.233333     0.233333     0.233333     0.233333     0.233333     0.233333
     0.083333     0.083333     0.083333     0.083333     0.083333     0.083333     0.083333     0.083333
     0.083333     0.083333     0.233333     0.233333     0.233333     0.233333     0.233333     0.233333
     0.233333     0.233333     0.233333     0.233333     0.083333     0.083333     0.083333     0.083333
     0.083333     0.083333     0.083333     0.083333     0.083333     0.083333     0.233333     0.233333
     0.233333     0.233333     0.233333     0.233333     0.233333     0.233333     0.233333     0.233333
     0.083333     0.083333     0.083333     0.083333     0.083333     0.083333     0.083333     0.083333
     0.083333     0.083333     0.233333     0.233333     0.233333     0.233333     0.233333     0.233333
     0.233333     0.233333     0.233333     0.233333     0.083333     0.083333     0.083333     0.083333
     0.083333     0.083333     0.083333     0.083333     0.083333     0.083333     0.233333     0.233333
     0.233333     0.233333     0.233333     0.233333     0.233333     0.233333     0.233333     0.233333
     0.083333     0.083333     0.083333     0.083333     0.083333     0.083333     0.083333     0.083333
     0.083333     0.083333     0.233333     0.233333     0.233333     0.233333     0.233333     0.233333
     0.233333     0.233333     0.233333     0.233333     0.083333     0.083333     0.083333     0.083333
     0.083333     0.083333     0.083333     0.083333     0.083333     0.083333     0.233333     0.233333
     0.233333     0.233333     0.233333     0.233333     0.233333     0.233333     0.233333     0.233333
     0.083333     0.083333     0.083333     0.083333     0.083333     0.083333     0.083333     0.083333
     0.083333     0.083333     0.233333     0.233333     0.233333     0.233333     0.233333     0.233333
     0.233333     0.233333     0.233333     0.233333     0.083333     0.083333     0.083333     0.083333
     0.083333     0.083333     0.083333     0.083333     0.083333     0.083333     0.233333     0.233333
     0.233333     0.233333     0.233333     0.233333     0.233333     0.233333     0.233333     0.233333
     0.083333     0.083333     0.083333     0.083333     0.083333     0.083333     0.083333     0.083333
     0.083333     0.083333     0.233333     0.233333     0.233333     0.233333     0.233333     0.233333
     0.233333     0.233333     0.233333     0.233333     0.083333     0.083333     0.083333     0.083333
     0.083333     0.083333     0.083333     0.083333     0.083333     0.083333     0.233333     0.233333
     0.233333     0.233333     0.233333     0.233333     0.233333     0.233333     0.233333     0.233333
     0.083333     0.083333     0.083333     0.083333     0.083333     0.083333     0.083333     0.083333
     0.083333     0.083333     0.233333     0.233333     0.233333     0.233333     0.233333     0.233333
     0.233333     0.233333     0.233333     0.233333     0.083333     0.083333     0.083333     0.083333
     0.083333     0.083333     0.083333     0.083333     0.083333     0.083333     0.233333     0.233333
     0.233333     0.233333     0.233333     0.233333     0.233333     0.233333     0.233333     0.233333
     0.083333     0.083333     0.083333     0.083333     0.083333     0.083333     0.083333     0.083333
     0.083333     0.083333     0.233333     0.233333     0.233333     0.233333     0.233333     0.233333
     0.233333     0.233333     0.233333     0.233333     0.083333     0.083333     0.083333     0.083333
     0.083333     0.083333     0.083333     0.083333     0.083333     0.083333     0.233333     0.233333
     0.233333     0.233333     0.233333     0.233333     0.233333     0.233333     0.233333     0.233333
     0.083333     0.083333     0.083333     0.083333     0.083333     0.083333     0.083333     0.083333
     0.083333     0.083333     0.233333     0.233333     0.233333     0.233333     0.233333     0.233333
     0.233333     0.233333     0.233333     0.233333     0.083333     0.083333     0.083333     0.083333
     0.083333     0.083333     0.083333     0.083333     0.083333     0.083333     0.233333     0.233333
     0.233333     0.233333     0.233333     0.233333     0.233333     0.233333     0.233333     0.233333
     0.083333     0.083333     0.083333     0.083333     0.083333     0.083333     0.083333     0.083333
     0.083333     0.083333     0.233333     0.233333     0.233333     0.233333     0.233333     0.233333
     0.233333     0.233333     0.233333     0.233333     0.083333     0.083333     0.083333     0.083333
     0.083333     0.083333     0.083333     0.083333     0.083333     0.083333     0.233333     0.233333
     0.233333     0.233333     0.233333     0.233333     0.233333     0.233333     0.233333     0.233333
     0.083333     0.083333     0.083333     0.083333     0.083333     0.083333     0.083333     0.083333
     0.083333     0.083333     0.233333     0.233333     0.233333     0.233333     0.233333     0.233333
     0.233333     0.233333     0.233333     0.233333     0.083333     0.083333     0.083333     0.083333
     0.083333     0.083333     0.083333     0.083333     0.083333     0.083333     0.233333     0.233333
     0.233333     0.233333     0.233333     0.233333     0.233333     0.233333     0.233333     0.233333
     0.083333     0.083333     0.083333     0.083333     0.083333     0.083333     0.083333     0.083333
     0.083333     0.083333     0.233333     0.233333     0.233333     0.233333     0.233333     0.233333
     0.233333     0.233333     0.233333     0.233333     0.083333     0.083333     0.083333     0.083333
     0.083333     0.083333     0.083333     0.083333     0.083333     0.083333     0.233333     0.233333
     0.233333     0.233333     0.233333     0.233333     0.233333     0.233333     0.233333     0.233333
     0.083333     0.083333     0.083333     0.083333     0.083333     0.083333     0.083333     0.083333
     0.083333     0.083333     0.233333     0.233333     0.233333     0.233333     0.233333     0.233333
     0.233333     0.233333     0.233333     0.233333     0.083333     0.083333     0.083333     0.083333
     0.083333     0.083333     0.083333     0.083333     0.083333     0.083333     0.233333     0.233333
     0.233333     0.233333     0.233333     0.233333     0.233333     0.233333     0.233333     0.233333
     0.166667     0.166667     0.166667     0.166667     0.166667     0.166667     0.166667     0.166667
     0.166667     0.166667     0.316667     0.316667     0.316667     0.316667     0.316667     0.316667
     0.316667     0.316667     0.316667     0.316667     0.166667     0.166667     0.166667     0.166667
     0.166667     0.166667     0.166667     0.166667     0.166667     0.166667     0.316667     0.316667
     0.316667     0.316667     0.316667     0.316667     0.316667     0.316667     0.316667     0.316667
     0.166667     0.166667     0.166667     0.166667     0.166667     0.166667     0.166667     0.166667
     0.166667     0.166667     0.316667     0.316667     0.316667     0.316667     0.316667     0.316667
     0.316667     0.316667     0.316667     0.316667     0.166667     0.166667     0.166667     0.166667
     0.166667     0.166667     0.166667     0.166667     0.166667     0.166667     0.316667     0.316667
     0.316667     0.316667     0.316667     0.316667     0.316667     0.316667     0.316667     0.316667
     0.166667     0.166667     0.166667     0.166667     0.166667     0.166667     0.166667     0.166667
     0.166667     0.166667     0.316667     0.316667     0.316667     0.316667     0.316667     0.316667
     0.316667     0.316667     0.316667     0.316667     0.166667     0.166667     0.166667     0.166667
     0.166667     0.166667     0.166667     0.166667     0.166667     0.166667     0.316667     0.316667
     0.316667     0.316667     0.316667     0.316667     0.316667     0.316667     0.316667     0.316667
     0.166667     0.166667     0.166667     0.166667     0.166667     0.166667     0.166667     0.166667
     0.166667     0.166667     0.316667     0.316667     0.316667     0.316667     0.316667     0.316667
     0.316667     0.316667     0.316667     0.316667     0.166667     0.166667     0.166667     0.166667
     0.166667     0.166667     0.166667     0.166667     0.166667     0.166667     0.316667     0.316667
     0.316667     0.316667     0.316667     0.316667     0.316667     0.316667     0.316667     0.316667
     0.166667     0.166667     0.166667     0.166667     0.166667     0.166667     0.166667     0.166667
     0.166667     0.166667     0.316667     0.316667     0.316667     0.316667     0.316667     0.316667
     0.316667     0.316667     0.316667     0.316667     0.166667     0.166667     0.166667     0.166667
     0.166667     0.166667     0.166667     0.166667     0.166667     0.166667     0.316667     0.316667
     0.316667     0.316667     0.316667     0.316667     0.316667     0.316667     0.316667     0.316667
     0.166667     0.166667     0.166667     0.166667     0.166667     0.166667     0.166667     0.166667
     0.166667     0.166667     0.316667     0.316667     0.316667     0.316667     0.316667     0.316667
     0.316667     0.316667     0.316667     0.316667     0.166667     0.166667     0.166667     0.166667
     0.166667     0.166667     0.166667     0.166667     0.166667     0.166667     0.316667     0.316667
     0.316667     0.316667     0.316667     0.316667     0.316667     0.316667     0.316667     0.316667
     0.166667     0.166667     0.166667     0.166667     0.166667     0.166667     0.166667     0.166667
     0.166667     0.166667     0.316667     0.316667     0.316667     0.316667     0.316667     0.316667
     0.316667     0.316667     0.316667     0.316667     0.166667     0.166667     0.166667     0.166667
     0.166667     0.166667     0.166667     0.166667     0.166667     0.166667     0.316667     0.316667
     0.316667     0.316667     0.316667     0.316667     0.316667     0.316667     0.316667     0.316667
     0.166667     0.166667     0.166667     0.166667     0.166667     0.166667     0.166667     0.166667
     0.166667     0.166667     0.316667     0.316667     0.316667     0.316667     0.316667     0.316667
     0.316667     0.316667     0.316667     0.316667     0.166667     0.166667     0.166667     0.166667
     0.166667     0.166667     0.166667     0.166667     0.166667     0.166667     0.316667     0.316667
     0.316667     0.316667     0.316667     0.316667     0.316667     0.316667     0.316667     0.316667