PINCHOUT
--PINCHXY
--1*  1*
--/
MAPAXES
   0.58700000E+06   0.59464000E+07   0.58700000E+06   0.59465000E+07
   0.58710000E+06   0.59465000E+07
/
GRIDUNIT
 'METRES  ' '        '
/
SPECGRID
20 20 6 1 F
/
COORD
   0.00000000E+00  -0.10000000E+06   0.24443262E+04   0.00000000E+00
  -0.10000000E+06   0.25883965E+04
   0.74999995E+04  -0.10000000E+06   0.23968813E+04   0.74999995E+04
  -0.10000000E+06   0.25672598E+04
   0.15000000E+05  -0.10000000E+06   0.23561172E+04   0.15000000E+05
  -0.10000000E+06   0.25500818E+04
   0.22499998E+05  -0.10000000E+06   0.23276699E+04   0.22499998E+05
  -0.10000000E+06   0.25397500E+04
   0.30000000E+05  -0.10000000E+06   0.23775281E+04   0.30000000E+05
  -0.10000000E+06   0.25738511E+04
   0.37500000E+05  -0.10000000E+06   0.24058894E+04   0.37500000E+05
  -0.10000000E+06   0.25938342E+04
   0.45000000E+05  -0.10000000E+06   0.23982776E+04   0.45000000E+05
  -0.10000000E+06   0.25901646E+04
   0.52500004E+05  -0.10000000E+06   0.22777605E+04   0.52500004E+05
  -0.10000000E+06   0.25229976E+04
   0.60000000E+05  -0.10000000E+06   0.22448711E+04   0.60000000E+05
  -0.10000000E+06   0.24889355E+04
   0.67500000E+05  -0.10000000E+06   0.22388408E+04   0.67500000E+05
  -0.10000000E+06   0.24799199E+04
   0.75000000E+05  -0.10000000E+06   0.22410571E+04   0.75000000E+05
  -0.10000000E+06   0.24810229E+04
   0.82500008E+05  -0.10000000E+06   0.22212122E+04   0.82500008E+05
  -0.10000000E+06   0.24485122E+04
   0.90000008E+05  -0.10000000E+06   0.23135664E+04   0.90000008E+05
  -0.10000000E+06   0.25377146E+04
   0.97500008E+05  -0.10000000E+06   0.23105601E+04   0.97500008E+05
  -0.10000000E+06   0.25359490E+04
   0.10500002E+06  -0.10000000E+06   0.23127559E+04   0.10500002E+06
  -0.10000000E+06   0.25364912E+04
   0.11250002E+06  -0.10000000E+06   0.23221094E+04   0.11250002E+06
  -0.10000000E+06   0.25427273E+04
   0.12000002E+06  -0.10000000E+06   0.23322102E+04   0.12000002E+06
  -0.10000000E+06   0.25522202E+04
   0.12750002E+06  -0.10000000E+06   0.23428337E+04   0.12750002E+06
  -0.10000000E+06   0.25628389E+04
   0.13500002E+06  -0.10000000E+06   0.23611458E+04   0.13500002E+06
  -0.10000000E+06   0.25811301E+04
   0.14250002E+06  -0.10000000E+06   0.23928628E+04   0.14250002E+06
  -0.10000000E+06   0.26128428E+04
   0.15000000E+06  -0.10000000E+06   0.24311230E+04   0.15000000E+06
  -0.10000000E+06   0.26511304E+04
   0.00000000E+00  -0.95000000E+05   0.24289099E+04   0.00000000E+00
  -0.95000000E+05   0.25812988E+04
   0.75000000E+04  -0.95000000E+05   0.23721975E+04   0.75000000E+04
  -0.95000000E+05   0.25566799E+04
   0.15000000E+05  -0.95000000E+05   0.23304612E+04   0.15000000E+05
  -0.95000000E+05   0.25394241E+04
   0.22500000E+05  -0.95000000E+05   0.23076978E+04   0.22500000E+05
  -0.95000000E+05   0.25283796E+04
   0.30000000E+05  -0.95000000E+05   0.23658118E+04   0.30000000E+05
  -0.95000000E+05   0.25748601E+04
   0.37500000E+05  -0.95000000E+05   0.23550305E+04   0.37500000E+05
  -0.95000000E+05   0.25726465E+04
   0.45000000E+05  -0.95000000E+05   0.21843706E+04   0.45000000E+05
  -0.95000000E+05   0.23924612E+04
   0.52500004E+05  -0.95000000E+05   0.22178196E+04   0.52500004E+05
  -0.95000000E+05   0.24335659E+04
   0.59999996E+05  -0.95000000E+05   0.22066511E+04   0.59999996E+05
  -0.95000000E+05   0.24166594E+04
   0.67499992E+05  -0.95000000E+05   0.21958027E+04   0.67499992E+05
  -0.95000000E+05   0.24056804E+04
   0.74999992E+05  -0.95000000E+05   0.21932776E+04   0.74999992E+05
  -0.95000000E+05   0.24029495E+04
   0.82500008E+05  -0.95000000E+05   0.21944194E+04   0.82500008E+05
  -0.95000000E+05   0.24035859E+04
   0.90000016E+05  -0.95000000E+05   0.22732964E+04   0.90000016E+05
  -0.95000000E+05   0.24934792E+04
   0.97500016E+05  -0.95000000E+05   0.22628455E+04   0.97500016E+05
  -0.95000000E+05   0.24821716E+04
   0.10500002E+06  -0.95000000E+05   0.22734458E+04   0.10500002E+06
  -0.95000000E+05   0.24934724E+04
   0.11250002E+06  -0.95000000E+05   0.22836812E+04   0.11250002E+06
  -0.95000000E+05   0.25036609E+04
   0.12000001E+06  -0.95000000E+05   0.22909348E+04   0.12000001E+06
  -0.95000000E+05   0.25109348E+04
   0.12750001E+06  -0.95000000E+05   0.23084441E+04   0.12750001E+06
  -0.95000000E+05   0.25284285E+04
   0.13500002E+06  -0.95000000E+05   0.23313186E+04   0.13500002E+06
  -0.95000000E+05   0.25513186E+04
   0.14250003E+06  -0.95000000E+05   0.23648772E+04   0.14250003E+06
  -0.95000000E+05   0.25848770E+04
   0.15000000E+06  -0.95000000E+05   0.24125974E+04   0.15000000E+06
  -0.95000000E+05   0.26325969E+04
   0.00000000E+00  -0.90000000E+05   0.24037561E+04   0.00000000E+00
  -0.90000000E+05   0.25702300E+04
   0.75000000E+04  -0.90000000E+05   0.23433833E+04   0.75000000E+04
  -0.90000000E+05   0.25445457E+04
   0.15000000E+05  -0.90000000E+05   0.23055847E+04   0.15000000E+05
  -0.90000000E+05   0.25276716E+04
   0.22500000E+05  -0.90000000E+05   0.22942915E+04   0.22500000E+05
  -0.90000000E+05   0.25149380E+04
   0.30000000E+05  -0.90000000E+05   0.23331511E+04   0.30000000E+05
  -0.90000000E+05   0.25486270E+04
   0.37500000E+05  -0.90000000E+05   0.23267896E+04   0.37500000E+05
  -0.90000000E+05   0.25380891E+04
   0.45000000E+05  -0.90000000E+05   0.21580405E+04   0.45000000E+05
  -0.90000000E+05   0.23589221E+04
   0.52500004E+05  -0.90000000E+05   0.21607568E+04   0.52500004E+05
  -0.90000000E+05   0.23634331E+04
   0.59999996E+05  -0.90000000E+05   0.21579658E+04   0.59999996E+05
  -0.90000000E+05   0.23677383E+04
   0.67499992E+05  -0.90000000E+05   0.21426909E+04   0.67499992E+05
  -0.90000000E+05   0.23527153E+04
   0.74999992E+05  -0.90000000E+05   0.21384102E+04   0.74999992E+05
  -0.90000000E+05   0.23449219E+04
   0.82500008E+05  -0.90000000E+05   0.21380513E+04   0.82500008E+05
  -0.90000000E+05   0.23451221E+04
   0.90000016E+05  -0.90000000E+05   0.21413538E+04   0.90000016E+05
  -0.90000000E+05   0.23516067E+04
   0.97500016E+05  -0.90000000E+05   0.22409407E+04   0.97500016E+05
  -0.90000000E+05   0.24538008E+04
   0.10500002E+06  -0.90000000E+05   0.22370757E+04   0.10500002E+06
  -0.90000000E+05   0.24490681E+04
   0.11250002E+06  -0.90000000E+05   0.22470950E+04   0.11250002E+06
  -0.90000000E+05   0.24675618E+04
   0.12000002E+06  -0.90000000E+05   0.22629092E+04   0.12000002E+06
  -0.90000000E+05   0.24828330E+04
   0.12750002E+06  -0.90000000E+05   0.22776216E+04   0.12750002E+06
  -0.90000000E+05   0.24975669E+04
   0.13499998E+06  -0.90000000E+05   0.23025391E+04   0.13499998E+06
  -0.90000000E+05   0.25225254E+04
   0.14250000E+06  -0.90000000E+05   0.23368154E+04   0.14250000E+06
  -0.90000000E+05   0.25568157E+04
   0.15000000E+06  -0.90000000E+05   0.23865042E+04   0.15000000E+06
  -0.90000000E+05   0.26064341E+04
   0.00000000E+00  -0.85000000E+05   0.23854111E+04   0.00000000E+00
  -0.85000000E+05   0.25623213E+04
   0.75000000E+04  -0.85000000E+05   0.23214121E+04   0.75000000E+04
  -0.85000000E+05   0.25351965E+04
   0.15000000E+05  -0.85000000E+05   0.22935762E+04   0.15000000E+05
  -0.85000000E+05   0.25182485E+04
   0.22500000E+05  -0.85000000E+05   0.22866143E+04   0.22500000E+05
  -0.85000000E+05   0.25064451E+04
   0.30000000E+05  -0.85000000E+05   0.23210376E+04   0.30000000E+05
  -0.85000000E+05   0.25337930E+04
   0.37500000E+05  -0.85000000E+05   0.22110073E+04   0.37500000E+05
  -0.85000000E+05   0.24167686E+04
   0.45000000E+05  -0.85000000E+05   0.21607891E+04   0.45000000E+05
  -0.85000000E+05   0.23595557E+04
   0.52500004E+05  -0.85000000E+05   0.21534551E+04   0.52500004E+05
  -0.85000000E+05   0.23645486E+04
   0.59999996E+05  -0.85000000E+05   0.21327305E+04   0.59999996E+05
  -0.85000000E+05   0.23400430E+04
   0.67499992E+05  -0.85000000E+05   0.21263945E+04   0.67499992E+05
  -0.85000000E+05   0.23337139E+04
   0.74999992E+05  -0.85000000E+05   0.21218689E+04   0.74999992E+05
  -0.85000000E+05   0.23369561E+04
   0.82500008E+05  -0.85000000E+05   0.21209182E+04   0.82500008E+05
  -0.85000000E+05   0.23347034E+04
   0.90000016E+05  -0.85000000E+05   0.21238308E+04   0.90000016E+05
  -0.85000000E+05   0.23268972E+04
   0.97500016E+05  -0.85000000E+05   0.21314929E+04   0.97500016E+05
  -0.85000000E+05   0.23460818E+04
   0.10500002E+06  -0.85000000E+05   0.22223787E+04   0.10500002E+06
  -0.85000000E+05   0.24274558E+04
   0.11250002E+06  -0.85000000E+05   0.22206335E+04   0.11250002E+06
  -0.85000000E+05   0.24334333E+04
   0.12000000E+06  -0.85000000E+05   0.22436118E+04   0.12000000E+06
  -0.85000000E+05   0.24637029E+04
   0.12750000E+06  -0.85000000E+05   0.22650310E+04   0.12750000E+06
  -0.85000000E+05   0.24852505E+04
   0.13500002E+06  -0.85000000E+05   0.22837991E+04   0.13500002E+06
  -0.85000000E+05   0.25037976E+04
   0.14250003E+06  -0.85000000E+05   0.23183347E+04   0.14250003E+06
  -0.85000000E+05   0.25384058E+04
   0.15000000E+06  -0.85000000E+05   0.23677029E+04   0.15000000E+06
  -0.85000000E+05   0.25877800E+04
   0.00000000E+00  -0.80000000E+05   0.23675720E+04   0.00000000E+00
  -0.80000000E+05   0.25549121E+04
   0.75000000E+04  -0.80000000E+05   0.23066230E+04   0.75000000E+04
  -0.80000000E+05   0.25283372E+04
   0.15000000E+05  -0.80000000E+05   0.22928137E+04   0.15000000E+05
  -0.80000000E+05   0.25132412E+04
   0.22500000E+05  -0.80000000E+05   0.22749451E+04   0.22500000E+05
  -0.80000000E+05   0.24939685E+04
   0.30000000E+05  -0.80000000E+05   0.23073413E+04   0.30000000E+05
  -0.80000000E+05   0.25248787E+04
   0.37500000E+05  -0.80000000E+05   0.22369612E+04   0.37500000E+05
  -0.80000000E+05   0.24511667E+04
   0.45000000E+05  -0.80000000E+05   0.21682151E+04   0.45000000E+05
  -0.80000000E+05   0.23765476E+04
   0.52500004E+05  -0.80000000E+05   0.21417478E+04   0.52500004E+05
  -0.80000000E+05   0.23533657E+04
   0.59999996E+05  -0.80000000E+05   0.21242600E+04   0.59999996E+05
  -0.80000000E+05   0.23352585E+04
   0.67499992E+05  -0.80000000E+05   0.21145378E+04   0.67499992E+05
  -0.80000000E+05   0.23101230E+04
   0.74999992E+05  -0.80000000E+05   0.21137021E+04   0.74999992E+05
  -0.80000000E+05   0.22923843E+04
   0.82500008E+05  -0.80000000E+05   0.21131470E+04   0.82500008E+05
  -0.80000000E+05   0.22982781E+04
   0.90000016E+05  -0.80000000E+05   0.21145640E+04   0.90000016E+05
  -0.80000000E+05   0.23302634E+04
   0.97500016E+05  -0.80000000E+05   0.21206379E+04   0.97500016E+05
  -0.80000000E+05   0.23637393E+04
   0.10500002E+06  -0.80000000E+05   0.21351587E+04   0.10500002E+06
  -0.80000000E+05   0.23439351E+04
   0.11250002E+06  -0.80000000E+05   0.21500007E+04   0.11250002E+06
  -0.80000000E+05   0.23552141E+04
   0.12000000E+06  -0.80000000E+05   0.22317375E+04   0.12000000E+06
  -0.80000000E+05   0.24506521E+04
   0.12750000E+06  -0.80000000E+05   0.22576570E+04   0.12750000E+06
  -0.80000000E+05   0.24777786E+04
   0.13500002E+06  -0.80000000E+05   0.22736816E+04   0.13500002E+06
  -0.80000000E+05   0.24937649E+04
   0.14250003E+06  -0.80000000E+05   0.23058682E+04   0.14250003E+06
  -0.80000000E+05   0.25259292E+04
   0.15000000E+06  -0.80000000E+05   0.23486787E+04   0.15000000E+06
  -0.80000000E+05   0.25687056E+04
   0.00000000E+00  -0.75000000E+05   0.23499399E+04   0.00000000E+00
  -0.75000000E+05   0.25491548E+04
   0.74999990E+04  -0.75000000E+05   0.23016992E+04   0.74999990E+04
  -0.75000000E+05   0.25246108E+04
   0.15000000E+05  -0.75000000E+05   0.22888069E+04   0.15000000E+05
  -0.75000000E+05   0.25088335E+04
   0.22499996E+05  -0.75000000E+05   0.22629436E+04   0.22499996E+05
  -0.75000000E+05   0.24829749E+04
   0.30000000E+05  -0.75000000E+05   0.23003496E+04   0.30000000E+05
  -0.75000000E+05   0.25201721E+04
   0.37500000E+05  -0.75000000E+05   0.22090271E+04   0.37500000E+05
  -0.75000000E+05   0.24206570E+04
   0.45000000E+05  -0.75000000E+05   0.21580474E+04   0.45000000E+05
  -0.75000000E+05   0.23771069E+04
   0.52500004E+05  -0.75000000E+05   0.21339324E+04   0.52500004E+05
  -0.75000000E+05   0.23406584E+04
   0.59999996E+05  -0.75000000E+05   0.21170090E+04   0.59999996E+05
  -0.75000000E+05   0.23244431E+04
   0.67499992E+05  -0.75000000E+05   0.21103333E+04   0.67499992E+05
  -0.75000000E+05   0.22358396E+04
   0.74999992E+05  -0.75000000E+05   0.20915898E+04   0.74999992E+05
  -0.75000000E+05   0.21542148E+04
   0.82500008E+05  -0.75000000E+05   0.20922368E+04   0.82500008E+05
  -0.75000000E+05   0.21613210E+04
   0.90000016E+05  -0.75000000E+05   0.21095513E+04   0.90000016E+05
  -0.75000000E+05   0.22344412E+04
   0.97500016E+05  -0.75000000E+05   0.21155303E+04   0.97500016E+05
  -0.75000000E+05   0.23200408E+04
   0.10500002E+06  -0.75000000E+05   0.21277705E+04   0.10500002E+06
  -0.75000000E+05   0.23380674E+04
   0.11250002E+06  -0.75000000E+05   0.21582791E+04   0.11250002E+06
  -0.75000000E+05   0.23575562E+04
   0.12000001E+06  -0.75000000E+05   0.21863284E+04   0.12000001E+06
  -0.75000000E+05   0.23693135E+04
   0.12750001E+06  -0.75000000E+05   0.22526201E+04   0.12750001E+06
  -0.75000000E+05   0.24719888E+04
   0.13500002E+06  -0.75000000E+05   0.22702046E+04   0.13500002E+06
  -0.75000000E+05   0.24911575E+04
   0.14250003E+06  -0.75000000E+05   0.23285127E+04   0.14250003E+06
  -0.75000000E+05   0.25482827E+04
   0.15000000E+06  -0.75000000E+05   0.23448616E+04   0.15000000E+06
  -0.75000000E+05   0.25649680E+04
   0.00000000E+00  -0.70000000E+05   0.23338000E+04   0.00000000E+00
  -0.70000000E+05   0.25449221E+04
   0.74999990E+04  -0.70000000E+05   0.23018320E+04   0.74999990E+04
  -0.70000000E+05   0.25230571E+04
   0.15000000E+05  -0.70000000E+05   0.22849087E+04   0.15000000E+05
  -0.70000000E+05   0.25049834E+04
   0.22499996E+05  -0.70000000E+05   0.22620562E+04   0.22499996E+05
  -0.70000000E+05   0.24823313E+04
   0.30000000E+05  -0.70000000E+05   0.23024377E+04   0.30000000E+05
  -0.70000000E+05   0.25211038E+04
   0.37500000E+05  -0.70000000E+05   0.21720681E+04   0.37500000E+05
  -0.70000000E+05   0.23806982E+04
   0.45000000E+05  -0.70000000E+05   0.21511965E+04   0.45000000E+05
  -0.70000000E+05   0.23673169E+04
   0.52500000E+05  -0.70000000E+05   0.21280681E+04   0.52500000E+05
  -0.70000000E+05   0.23343264E+04
   0.59999992E+05  -0.70000000E+05   0.21158730E+04   0.59999992E+05
  -0.70000000E+05   0.22944106E+04
   0.67499992E+05  -0.70000000E+05   0.20934397E+04   0.67499992E+05
  -0.70000000E+05   0.21672678E+04
   0.74999992E+05  -0.70000000E+05   0.20318440E+04   0.74999992E+05
  -0.70000000E+05   0.20318440E+04
   0.82500008E+05  -0.70000000E+05   0.20236128E+04   0.82500008E+05
  -0.70000000E+05   0.20236128E+04
   0.90000016E+05  -0.70000000E+05   0.20832905E+04   0.90000016E+05
  -0.70000000E+05   0.20987910E+04
   0.97500016E+05  -0.70000000E+05   0.21145664E+04   0.97500016E+05
  -0.70000000E+05   0.22649534E+04
   0.10500002E+06  -0.70000000E+05   0.21234407E+04   0.10500002E+06
  -0.70000000E+05   0.23379553E+04
   0.11250002E+06  -0.70000000E+05   0.21540632E+04   0.11250002E+06
  -0.70000000E+05   0.23559626E+04
   0.12000001E+06  -0.70000000E+05   0.21951948E+04   0.12000001E+06
  -0.70000000E+05   0.23761660E+04
   0.12750001E+06  -0.70000000E+05   0.22124878E+04   0.12750001E+06
  -0.70000000E+05   0.24045059E+04
   0.13499998E+06  -0.70000000E+05   0.22634629E+04   0.13499998E+06
  -0.70000000E+05   0.24841814E+04
   0.14250000E+06  -0.70000000E+05   0.22987251E+04   0.14250000E+06
  -0.70000000E+05   0.25182188E+04
   0.15000000E+06  -0.70000000E+05   0.23451660E+04   0.15000000E+06
  -0.70000000E+05   0.25651782E+04
   0.00000000E+00  -0.65000004E+05   0.23214500E+04   0.00000000E+00
  -0.65000004E+05   0.25412910E+04
   0.74999990E+04  -0.65000004E+05   0.23015171E+04   0.74999990E+04
  -0.65000004E+05   0.25216909E+04
   0.15000000E+05  -0.65000004E+05   0.22824268E+04   0.15000000E+05
  -0.65000004E+05   0.25024756E+04
   0.22499996E+05  -0.65000004E+05   0.22618489E+04   0.22499996E+05
  -0.65000004E+05   0.24820049E+04
   0.30000000E+05  -0.65000004E+05   0.22004775E+04   0.30000000E+05
  -0.65000004E+05   0.24142649E+04
   0.37500000E+05  -0.65000004E+05   0.21655637E+04   0.37500000E+05
  -0.65000004E+05   0.23746643E+04
   0.45000000E+05  -0.65000004E+05   0.21471099E+04   0.45000000E+05
  -0.65000004E+05   0.23602996E+04
   0.52500000E+05  -0.65000004E+05   0.21242759E+04   0.52500000E+05
  -0.65000004E+05   0.23320671E+04
   0.60000000E+05  -0.65000004E+05   0.21146123E+04   0.60000000E+05
  -0.65000004E+05   0.22686191E+04
   0.67499992E+05  -0.65000004E+05   0.20822651E+04   0.67499992E+05
  -0.65000004E+05   0.21048733E+04
   0.74999992E+05  -0.64999996E+05   0.20153510E+04   0.74999992E+05
  -0.64999996E+05   0.20153510E+04
   0.82500008E+05  -0.65000008E+05   0.20000983E+04   0.82500008E+05
  -0.65000008E+05   0.20000983E+04
   0.90000016E+05  -0.65000008E+05   0.20414299E+04   0.90000016E+05
  -0.65000008E+05   0.20414299E+04
   0.97500016E+05  -0.65000008E+05   0.21141743E+04   0.97500016E+05
  -0.65000008E+05   0.22387317E+04
   0.10500002E+06  -0.65000008E+05   0.21221777E+04   0.10500002E+06
  -0.65000008E+05   0.23358931E+04
   0.11250002E+06  -0.65000008E+05   0.21508196E+04   0.11250002E+06
  -0.65000008E+05   0.23550410E+04
   0.12000000E+06  -0.64999992E+05   0.21939788E+04   0.12000000E+06
  -0.64999992E+05   0.23747305E+04
   0.12750000E+06  -0.65000000E+05   0.22138853E+04   0.12750000E+06
  -0.65000000E+05   0.24070696E+04
   0.13500002E+06  -0.65000000E+05   0.22935186E+04   0.13500002E+06
  -0.65000000E+05   0.25130930E+04
   0.14250003E+06  -0.65000000E+05   0.22981221E+04   0.14250003E+06
  -0.65000000E+05   0.25183037E+04
   0.15000000E+06  -0.64999996E+05   0.23433459E+04   0.15000000E+06
  -0.64999996E+05   0.25630742E+04
   0.00000000E+00  -0.60000000E+05   0.23201680E+04   0.00000000E+00
  -0.60000000E+05   0.25401680E+04
   0.74999990E+04  -0.60000004E+05   0.23002124E+04   0.74999990E+04
  -0.60000004E+05   0.25202002E+04
   0.14999998E+05  -0.60000004E+05   0.22811055E+04   0.14999998E+05
  -0.60000004E+05   0.25011055E+04
   0.22499996E+05  -0.60000004E+05   0.22038525E+04   0.22499996E+05
  -0.60000004E+05   0.24141460E+04
   0.29999996E+05  -0.60000004E+05   0.21802476E+04   0.29999996E+05
  -0.60000004E+05   0.23902034E+04
   0.37500000E+05  -0.60000004E+05   0.21622598E+04   0.37500000E+05
  -0.60000004E+05   0.23714370E+04
   0.45000000E+05  -0.60000004E+05   0.21448242E+04   0.45000000E+05
  -0.60000004E+05   0.23569380E+04
   0.52499996E+05  -0.60000004E+05   0.21228823E+04   0.52499996E+05
  -0.60000004E+05   0.23310925E+04
   0.59999996E+05  -0.59999996E+05   0.21142839E+04   0.59999996E+05
  -0.59999996E+05   0.22568672E+04
   0.67499992E+05  -0.59999996E+05   0.20757627E+04   0.67499992E+05
  -0.59999996E+05   0.20903267E+04
   0.74999992E+05  -0.60000008E+05   0.20159840E+04   0.74999992E+05
  -0.60000008E+05   0.20159840E+04
   0.82500008E+05  -0.60000008E+05   0.20019285E+04   0.82500008E+05
  -0.60000008E+05   0.20019285E+04
   0.90000016E+05  -0.60000008E+05   0.20460562E+04   0.90000016E+05
  -0.60000008E+05   0.20460562E+04
   0.97500016E+05  -0.60000008E+05   0.21148013E+04   0.97500016E+05
  -0.60000008E+05   0.22446646E+04
   0.10500002E+06  -0.60000008E+05   0.21233643E+04   0.10500002E+06
  -0.60000008E+05   0.23359119E+04
   0.11250002E+06  -0.60000008E+05   0.21539631E+04   0.11250002E+06
  -0.60000008E+05   0.23554209E+04
   0.12000002E+06  -0.60000000E+05   0.21945576E+04   0.12000002E+06
  -0.60000000E+05   0.23753696E+04
   0.12750001E+06  -0.60000000E+05   0.23303210E+04   0.12750001E+06
  -0.60000000E+05   0.25418860E+04
   0.13500002E+06  -0.60000000E+05   0.23405627E+04   0.13500002E+06
  -0.60000000E+05   0.25553813E+04
   0.14250003E+06  -0.60000008E+05   0.23544580E+04   0.14250003E+06
  -0.60000008E+05   0.25855295E+04
   0.15000000E+06  -0.60000000E+05   0.23636997E+04   0.15000000E+06
  -0.60000000E+05   0.26030479E+04
   0.00000000E+00  -0.55000004E+05   0.23194670E+04   0.00000000E+00
  -0.55000004E+05   0.25394761E+04
   0.75000000E+04  -0.55000004E+05   0.22994980E+04   0.75000000E+04
  -0.55000004E+05   0.25194980E+04
   0.14999998E+05  -0.55000004E+05   0.22808320E+04   0.14999998E+05
  -0.55000004E+05   0.25008508E+04
   0.22499996E+05  -0.55000004E+05   0.22195525E+04   0.22499996E+05
  -0.55000004E+05   0.24295410E+04
   0.30000000E+05  -0.55000004E+05   0.21880176E+04   0.30000000E+05
  -0.55000004E+05   0.23979529E+04
   0.37500000E+05  -0.55000004E+05   0.21628428E+04   0.37500000E+05
  -0.55000004E+05   0.23724980E+04
   0.45000000E+05  -0.55000004E+05   0.21448254E+04   0.45000000E+05
  -0.55000004E+05   0.23569170E+04
   0.52499996E+05  -0.55000004E+05   0.21246399E+04   0.52499996E+05
  -0.55000004E+05   0.23313022E+04
   0.59999996E+05  -0.55000004E+05   0.21153660E+04   0.59999996E+05
  -0.55000004E+05   0.22674219E+04
   0.67499992E+05  -0.55000008E+05   0.21019028E+04   0.67499992E+05
  -0.55000008E+05   0.21328894E+04
   0.74999992E+05  -0.55000000E+05   0.20333269E+04   0.74999992E+05
  -0.55000000E+05   0.20333269E+04
   0.82500008E+05  -0.55000000E+05   0.20301948E+04   0.82500008E+05
  -0.55000000E+05   0.20301948E+04
   0.90000016E+05  -0.55000008E+05   0.20970610E+04   0.90000016E+05
  -0.55000008E+05   0.21140115E+04
   0.97500016E+05  -0.55000008E+05   0.21156218E+04   0.97500016E+05
  -0.55000008E+05   0.22794417E+04
   0.10500002E+06  -0.55000008E+05   0.21264949E+04   0.10500002E+06
  -0.55000008E+05   0.23389307E+04
   0.11250002E+06  -0.55000008E+05   0.21582209E+04   0.11250002E+06
  -0.55000008E+05   0.23553555E+04
   0.12000001E+06  -0.55000008E+05   0.21974995E+04   0.12000001E+06
  -0.55000008E+05   0.23803481E+04
   0.12750001E+06  -0.55000000E+05   0.23223918E+04   0.12750001E+06
  -0.55000000E+05   0.25324373E+04
   0.13499998E+06  -0.55000000E+05   0.23379766E+04   0.13499998E+06
  -0.55000000E+05   0.25513323E+04
   0.14250000E+06  -0.55000000E+05   0.23682842E+04   0.14250000E+06
  -0.55000000E+05   0.26065117E+04
   0.15000000E+06  -0.54999996E+05   0.23766841E+04   0.15000000E+06
  -0.54999996E+05   0.26241338E+04
   0.00000000E+00  -0.50000004E+05   0.23194800E+04   0.00000000E+00
  -0.50000004E+05   0.25395000E+04
   0.74999990E+04  -0.50000008E+05   0.22997710E+04   0.74999990E+04
  -0.50000008E+05   0.25197710E+04
   0.14999998E+05  -0.50000008E+05   0.22514858E+04   0.14999998E+05
  -0.50000008E+05   0.24616226E+04
   0.22499996E+05  -0.50000008E+05   0.22380557E+04   0.22499996E+05
  -0.50000008E+05   0.24480586E+04
   0.30000000E+05  -0.50000008E+05   0.22023701E+04   0.30000000E+05
  -0.50000008E+05   0.24124521E+04
   0.37500000E+05  -0.50000008E+05   0.21693298E+04   0.37500000E+05
  -0.50000008E+05   0.23789800E+04
   0.45000000E+05  -0.50000008E+05   0.21478198E+04   0.45000000E+05
  -0.50000008E+05   0.23596211E+04
   0.52499996E+05  -0.50000000E+05   0.21281665E+04   0.52499996E+05
  -0.50000000E+05   0.23318311E+04
   0.59999996E+05  -0.50000004E+05   0.21169219E+04   0.59999996E+05
  -0.50000004E+05   0.23037959E+04
   0.67499992E+05  -0.50000004E+05   0.21149556E+04   0.67499992E+05
  -0.50000004E+05   0.22042363E+04
   0.74999992E+05  -0.50000004E+05   0.20961399E+04   0.74999992E+05
  -0.50000004E+05   0.21050298E+04
   0.82500008E+05  -0.50000004E+05   0.20994907E+04   0.82500008E+05
  -0.50000004E+05   0.21127041E+04
   0.90000016E+05  -0.50000004E+05   0.21135420E+04   0.90000016E+05
  -0.50000004E+05   0.22198262E+04
   0.97500016E+05  -0.49999996E+05   0.21180149E+04   0.97500016E+05
  -0.49999996E+05   0.23227637E+04
   0.10500002E+06  -0.49999996E+05   0.21315059E+04   0.10500002E+06
  -0.49999996E+05   0.23416689E+04
   0.11250002E+06  -0.49999996E+05   0.21643726E+04   0.11250002E+06
  -0.49999996E+05   0.23564348E+04
   0.12000001E+06  -0.49999996E+05   0.22836162E+04   0.12000001E+06
  -0.49999996E+05   0.25073779E+04
   0.12750001E+06  -0.49999996E+05   0.23089614E+04   0.12750001E+06
  -0.49999996E+05   0.25205540E+04
   0.13499998E+06  -0.49999996E+05   0.23434810E+04   0.13499998E+06
  -0.49999996E+05   0.25590635E+04
   0.14250000E+06  -0.49999996E+05   0.23703540E+04   0.14250000E+06
  -0.49999996E+05   0.26106895E+04
   0.15000000E+06  -0.49999992E+05   0.23933799E+04   0.15000000E+06
  -0.49999992E+05   0.26575000E+04
   0.00000000E+00  -0.45000004E+05   0.23204441E+04   0.00000000E+00
  -0.45000004E+05   0.25403970E+04
   0.74999990E+04  -0.45000008E+05   0.23007800E+04   0.74999990E+04
  -0.45000008E+05   0.25208196E+04
   0.14999998E+05  -0.45000008E+05   0.22661497E+04   0.14999998E+05
  -0.45000008E+05   0.24778730E+04
   0.22499996E+05  -0.45000008E+05   0.22502742E+04   0.22499996E+05
  -0.45000008E+05   0.24598323E+04
   0.30000000E+05  -0.45000008E+05   0.22154438E+04   0.30000000E+05
  -0.45000008E+05   0.24254878E+04
   0.37500000E+05  -0.45000008E+05   0.21809102E+04   0.37500000E+05
  -0.45000008E+05   0.23907029E+04
   0.44999992E+05  -0.45000000E+05   0.21554165E+04   0.44999992E+05
  -0.45000000E+05   0.23662854E+04
   0.52499996E+05  -0.45000004E+05   0.21341523E+04   0.52499996E+05
  -0.45000004E+05   0.23407822E+04
   0.59999992E+05  -0.45000004E+05   0.21232563E+04   0.59999992E+05
  -0.45000004E+05   0.23313916E+04
   0.67499992E+05  -0.45000004E+05   0.21182942E+04   0.67499992E+05
  -0.45000004E+05   0.22924688E+04
   0.74999992E+05  -0.45000004E+05   0.21168340E+04   0.74999992E+05
  -0.45000004E+05   0.22462524E+04
   0.82500008E+05  -0.45000004E+05   0.21166680E+04   0.82500008E+05
  -0.45000004E+05   0.22479233E+04
   0.90000016E+05  -0.45000004E+05   0.21174062E+04   0.90000016E+05
  -0.45000004E+05   0.22972153E+04
   0.97500016E+05  -0.44999996E+05   0.21244067E+04   0.97500016E+05
  -0.44999996E+05   0.23398018E+04
   0.10500002E+06  -0.44999996E+05   0.21396519E+04   0.10500002E+06
  -0.44999996E+05   0.23496782E+04
   0.11250002E+06  -0.44999996E+05   0.22656240E+04   0.11250002E+06
  -0.44999996E+05   0.24954624E+04
   0.12000000E+06  -0.44999996E+05   0.22689939E+04   0.12000000E+06
  -0.44999996E+05   0.24984131E+04
   0.12750001E+06  -0.44999996E+05   0.23183501E+04   0.12750001E+06
  -0.44999996E+05   0.25289258E+04
   0.13499998E+06  -0.44999996E+05   0.23483145E+04   0.13499998E+06
  -0.44999996E+05   0.25670059E+04
   0.14250000E+06  -0.44999996E+05   0.23736680E+04   0.14250000E+06
  -0.44999996E+05   0.26172539E+04
   0.15000000E+06  -0.44999992E+05   0.24015359E+04   0.15000000E+06
  -0.44999992E+05   0.26731011E+04
   0.00000000E+00  -0.40000004E+05   0.23288840E+04   0.00000000E+00
  -0.40000004E+05   0.25430879E+04
   0.74999990E+04  -0.40000008E+05   0.23020078E+04   0.74999990E+04
  -0.40000008E+05   0.25223279E+04
   0.14999998E+05  -0.40000008E+05   0.22770352E+04   0.14999998E+05
  -0.40000008E+05   0.24923269E+04
   0.22499996E+05  -0.40000008E+05   0.22584941E+04   0.22499996E+05
  -0.40000008E+05   0.24682791E+04
   0.29999996E+05  -0.40000008E+05   0.22289207E+04   0.29999996E+05
  -0.40000008E+05   0.24388936E+04
   0.37500000E+05  -0.40000008E+05   0.21958589E+04   0.37500000E+05
  -0.40000008E+05   0.24059138E+04
   0.45000000E+05  -0.40000000E+05   0.21697344E+04   0.45000000E+05
  -0.40000000E+05   0.23797285E+04
   0.52499996E+05  -0.40000004E+05   0.21457861E+04   0.52499996E+05
  -0.40000004E+05   0.23572842E+04
   0.59999996E+05  -0.40000004E+05   0.21314592E+04   0.59999996E+05
  -0.40000004E+05   0.23362576E+04
   0.67499992E+05  -0.40000004E+05   0.21267129E+04   0.67499992E+05
  -0.40000004E+05   0.23367292E+04
   0.74999992E+05  -0.40000004E+05   0.21242361E+04   0.74999992E+05
  -0.40000004E+05   0.23283540E+04
   0.82500008E+05  -0.40000004E+05   0.21240435E+04   0.82500008E+05
  -0.40000004E+05   0.23264629E+04
   0.90000016E+05  -0.40000004E+05   0.21255779E+04   0.90000016E+05
  -0.40000004E+05   0.23366321E+04
   0.97500016E+05  -0.39999996E+05   0.21327075E+04   0.97500016E+05
  -0.39999996E+05   0.23382368E+04
   0.10500002E+06  -0.39999996E+05   0.22623442E+04   0.10500002E+06
  -0.39999996E+05   0.24925044E+04
   0.11250000E+06  -0.39999996E+05   0.22632095E+04   0.11250000E+06
  -0.39999996E+05   0.24934229E+04
   0.12000001E+06  -0.39999996E+05   0.22754233E+04   0.12000001E+06
  -0.39999996E+05   0.25032883E+04
   0.12750001E+06  -0.39999996E+05   0.23295032E+04   0.12750001E+06
  -0.39999996E+05   0.25395691E+04
   0.13499998E+06  -0.39999996E+05   0.23539019E+04   0.13499998E+06
  -0.39999996E+05   0.25774475E+04
   0.14250003E+06  -0.40000000E+05   0.23783831E+04   0.14250003E+06
  -0.40000000E+05   0.26266575E+04
   0.15000000E+06  -0.39999992E+05   0.24067363E+04   0.15000000E+06
  -0.39999992E+05   0.26833320E+04
   0.00000000E+00  -0.35000008E+05   0.23442979E+04   0.00000000E+00
  -0.35000008E+05   0.25458469E+04
   0.74999990E+04  -0.35000008E+05   0.23025454E+04   0.74999990E+04
  -0.35000008E+05   0.25231116E+04
   0.14999998E+05  -0.35000008E+05   0.22873481E+04   0.14999998E+05
  -0.35000008E+05   0.25068054E+04
   0.22499996E+05  -0.35000008E+05   0.22660234E+04   0.22499996E+05
  -0.35000008E+05   0.24774326E+04
   0.29999996E+05  -0.35000008E+05   0.22412866E+04   0.29999996E+05
  -0.35000008E+05   0.24507356E+04
   0.37499992E+05  -0.35000008E+05   0.22136689E+04   0.37499992E+05
  -0.35000008E+05   0.24236655E+04
   0.45000000E+05  -0.35000012E+05   0.21883132E+04   0.45000000E+05
  -0.35000012E+05   0.23983132E+04
   0.52499996E+05  -0.35000004E+05   0.21672502E+04   0.52499996E+05
  -0.35000004E+05   0.23776187E+04
   0.59999996E+05  -0.35000012E+05   0.21471099E+04   0.59999996E+05
  -0.35000012E+05   0.23595623E+04
   0.67499992E+05  -0.35000004E+05   0.21359629E+04   0.67499992E+05
  -0.35000004E+05   0.23446799E+04
   0.74999992E+05  -0.35000004E+05   0.21314302E+04   0.74999992E+05
  -0.35000004E+05   0.23362805E+04
   0.82500008E+05  -0.35000004E+05   0.21311499E+04   0.82500008E+05
  -0.35000004E+05   0.23353823E+04
   0.90000016E+05  -0.35000004E+05   0.21347681E+04   0.90000016E+05
  -0.35000004E+05   0.23425500E+04