NOECHO
PINCH
/
MAPUNITS
 'FEET    '
/
MAPAXES
   0.16052051E+07  -0.17660000E+06   0.16052051E+07  -0.17650000E+06
   0.16053051E+07  -0.17650000E+06
/
GRIDUNIT
 'FEET    ' '        '
/
SPECGRID
20 30 3 1 F
/
COORD
  -0.17635117E+04  -0.19550486E+04   0.63803384E+04  -0.17635117E+04
  -0.19550486E+04   0.64990273E+04
  -0.15198944E+04  -0.20542180E+04   0.63769092E+04  -0.15198944E+04
  -0.20542180E+04   0.64990244E+04
  -0.12762770E+04  -0.21533875E+04   0.63716030E+04  -0.12762770E+04
  -0.21533875E+04   0.64963145E+04
  -0.10326598E+04  -0.22525569E+04   0.63672505E+04  -0.10326598E+04
  -0.22525569E+04   0.64937349E+04
  -0.78904248E+03  -0.23517263E+04   0.63673862E+04  -0.78904248E+03
  -0.23517263E+04   0.64940864E+04
  -0.54544379E+03  -0.24508882E+04   0.63742393E+04  -0.54544379E+03
  -0.24508882E+04   0.65008872E+04
  -0.30182651E+03  -0.25500576E+04   0.63848950E+04  -0.30182651E+03
  -0.25500576E+04   0.65116885E+04
  -0.58209229E+02  -0.26492271E+04   0.63972905E+04  -0.58209229E+02
  -0.26492271E+04   0.65243306E+04
   0.18540805E+03  -0.27483965E+04   0.64091152E+04   0.18540805E+03
  -0.27483965E+04   0.65360303E+04
   0.42900677E+03  -0.28475583E+04   0.64167686E+04   0.42900677E+03
  -0.28475583E+04   0.65446846E+04
   0.67262402E+03  -0.29467280E+04   0.64226738E+04   0.67262402E+03
  -0.29467280E+04   0.65502510E+04
   0.91624133E+03  -0.30458972E+04   0.64264023E+04   0.91624133E+03
  -0.30458972E+04   0.65538608E+04
   0.11598588E+04  -0.31450667E+04   0.64293252E+04   0.11598588E+04
  -0.31450667E+04   0.65565674E+04
   0.14034760E+04  -0.32442363E+04   0.64310938E+04   0.14034760E+04
  -0.32442363E+04   0.65592109E+04
   0.16470747E+04  -0.33433979E+04   0.64349849E+04   0.16470747E+04
  -0.33433979E+04   0.65632388E+04
   0.18906919E+04  -0.34425679E+04   0.64385884E+04   0.18906919E+04
  -0.34425679E+04   0.65664624E+04
   0.21343091E+04  -0.35417371E+04   0.64411504E+04   0.21343091E+04
  -0.35417371E+04   0.65702061E+04
   0.23779265E+04  -0.36409065E+04   0.64425200E+04   0.23779265E+04
  -0.36409065E+04   0.65731602E+04
   0.26215251E+04  -0.37400686E+04   0.64395928E+04   0.26215251E+04
  -0.37400686E+04   0.65713545E+04
   0.28651423E+04  -0.38392378E+04   0.64329644E+04   0.28651423E+04
  -0.38392378E+04   0.65653037E+04
   0.31085369E+04  -0.39383164E+04   0.64227021E+04   0.31085369E+04
  -0.39383164E+04   0.65555737E+04
  -0.16760500E+04  -0.17401926E+04   0.63941621E+04  -0.16840256E+04
  -0.17597852E+04   0.65106963E+04
  -0.14305195E+04  -0.18091886E+04   0.63942939E+04  -0.14338103E+04
  -0.18351664E+04   0.65137329E+04
  -0.11852653E+04  -0.18993527E+04   0.63913755E+04  -0.11875206E+04
  -0.19284352E+04   0.65130347E+04
  -0.94661975E+03  -0.20063363E+04   0.63891567E+04  -0.94880084E+03
  -0.20370349E+04   0.65116333E+04
  -0.71325757E+03  -0.21224324E+04   0.63888027E+04  -0.71562189E+03
  -0.21536519E+04   0.65125522E+04
  -0.47605124E+03  -0.22340181E+04   0.63970591E+04  -0.47826971E+03
  -0.22643257E+04   0.65212524E+04
  -0.23211742E+03  -0.23318733E+04   0.64112881E+04  -0.23392580E+03
  -0.23606951E+04   0.65354966E+04
   0.13001736E+02  -0.24266299E+04   0.64270737E+04   0.11551382E+02
  -0.24544465E+04   0.65514302E+04
   0.25894562E+03  -0.25198650E+04   0.64413486E+04   0.25748642E+03
  -0.25477529E+04   0.65656025E+04
   0.50542511E+03  -0.26122405E+04   0.64520820E+04   0.50370560E+03
  -0.26409163E+04   0.65760942E+04
   0.75159393E+03  -0.27064749E+04   0.64590581E+04   0.74960291E+03
  -0.27359333E+04   0.65831021E+04
   0.99584204E+03  -0.28066069E+04   0.64625840E+04   0.99377283E+03
  -0.28361975E+04   0.65865718E+04
   0.12393219E+04  -0.29092869E+04   0.64638394E+04   0.12374020E+04
  -0.29383650E+04   0.65883374E+04
   0.14843325E+04  -0.30083586E+04   0.64648296E+04   0.14827478E+04
  -0.30363423E+04   0.65901016E+04
   0.17303876E+04  -0.31047100E+04   0.64660405E+04   0.17292360E+04
  -0.31312490E+04   0.65922168E+04
   0.19766820E+04  -0.32005037E+04   0.64668179E+04   0.19758983E+04
  -0.32257683E+04   0.65939517E+04
   0.22240371E+04  -0.32925103E+04   0.64673594E+04   0.22233899E+04
  -0.33172993E+04   0.65955405E+04
   0.24704521E+04  -0.33875786E+04   0.64657144E+04   0.24696199E+04
  -0.34127415E+04   0.65947222E+04
   0.27173115E+04  -0.34814539E+04   0.64611206E+04   0.27157295E+04
  -0.35072932E+04   0.65906328E+04
   0.29645654E+04  -0.35782312E+04   0.64545400E+04   0.29607437E+04
  -0.36039094E+04   0.65848442E+04
   0.32134492E+04  -0.36804612E+04   0.64455479E+04   0.32042300E+04
  -0.37031204E+04   0.65762207E+04
  -0.15978284E+04  -0.15224293E+04   0.64073345E+04  -0.16024720E+04
  -0.15708472E+04   0.65229702E+04
  -0.13439673E+04  -0.15696564E+04   0.64096104E+04  -0.13473451E+04
  -0.16228298E+04   0.65276265E+04
  -0.10952797E+04  -0.16534215E+04   0.64096104E+04  -0.10985803E+04
  -0.17103621E+04   0.65292666E+04
  -0.86071014E+03  -0.17690696E+04   0.64088135E+04  -0.86477448E+03
  -0.18290023E+04   0.65294893E+04
  -0.63760431E+03  -0.19031199E+04   0.64096104E+04  -0.64254785E+03
  -0.19649164E+04   0.65318560E+04
  -0.40796625E+03  -0.20298641E+04   0.64187813E+04  -0.41253937E+03
  -0.20895356E+04   0.65407939E+04
  -0.16454607E+03  -0.21290562E+04   0.64354893E+04  -0.16768617E+03
  -0.21844805E+04   0.65577983E+04
   0.83224571E+02  -0.22170093E+04   0.64541860E+04   0.80887085E+02
  -0.22701943E+04   0.65768726E+04
   0.33262274E+03  -0.23022629E+04   0.64720410E+04   0.32999774E+03
  -0.23559487E+04   0.65934629E+04
   0.58148499E+03  -0.23903196E+04   0.64849556E+04   0.57821570E+03
  -0.24458787E+04   0.66057915E+04
   0.82911871E+03  -0.24832917E+04   0.64929146E+04   0.82537677E+03
  -0.25400735E+04   0.66134258E+04
   0.10739895E+04  -0.25846240E+04   0.64965518E+04   0.10700112E+04
  -0.26417317E+04   0.66169912E+04
   0.13179470E+04  -0.26887942E+04   0.64969883E+04   0.13141875E+04
  -0.27450981E+04   0.66178813E+04
   0.15643383E+04  -0.27873638E+04   0.64971714E+04   0.15613433E+04
  -0.28414668E+04   0.66191543E+04
   0.18127998E+04  -0.28804258E+04   0.64972095E+04   0.18107299E+04
  -0.29314590E+04   0.66202227E+04
   0.20621191E+04  -0.29710400E+04   0.64961138E+04   0.20607407E+04
  -0.30195950E+04   0.66207295E+04
   0.23135886E+04  -0.30542820E+04   0.64950503E+04   0.23124910E+04
  -0.31015691E+04   0.66208950E+04
   0.25631199E+04  -0.31436660E+04   0.64916328E+04   0.25616299E+04
  -0.31916050E+04   0.66180654E+04
   0.28127869E+04  -0.32321208E+04   0.64867720E+04   0.28100156E+04
  -0.32824082E+04   0.66138457E+04
   0.30610520E+04  -0.33260652E+04   0.64807251E+04   0.30561719E+04
  -0.33782751E+04   0.66078467E+04
   0.33080227E+04  -0.34250059E+04   0.64731001E+04   0.33005249E+04
  -0.34776587E+04   0.65997178E+04
  -0.15184666E+04  -0.13179688E+04   0.64260381E+04  -0.15213695E+04
  -0.13899941E+04   0.65397002E+04
  -0.12580726E+04  -0.13416139E+04   0.64275098E+04  -0.12611497E+04
  -0.14191289E+04   0.65439243E+04
  -0.10058723E+04  -0.14154604E+04   0.64260381E+04  -0.10092903E+04
  -0.14977443E+04   0.65455928E+04
  -0.77471588E+03  -0.15392511E+04   0.64260381E+04  -0.78005743E+03
  -0.16265686E+04   0.65472559E+04
  -0.56149188E+03  -0.16924128E+04   0.64297124E+04  -0.56913214E+03
  -0.17832366E+04   0.65507368E+04
  -0.34137952E+03  -0.18373464E+04   0.64383115E+04  -0.34863950E+03
  -0.19263859E+04   0.65596157E+04
  -0.10004478E+03  -0.19424742E+04   0.64562021E+04  -0.10330222E+03
  -0.20213008E+04   0.65784277E+04
   0.15283893E+03  -0.20169470E+04   0.64763213E+04   0.15064957E+03
  -0.20924807E+04   0.65995361E+04
   0.40769962E+03  -0.20882239E+04   0.64957842E+04   0.40428870E+03
  -0.21671895E+04   0.66180654E+04
   0.65778113E+03  -0.21773809E+04   0.65117017E+04   0.65315576E+03
  -0.22599448E+04   0.66333760E+04
   0.90469373E+03  -0.22770042E+04   0.65227261E+04   0.89986755E+03
  -0.23581609E+04   0.66407852E+04
   0.11505482E+04  -0.23784404E+04   0.65261621E+04   0.11450187E+04
  -0.24611248E+04   0.66453193E+04
   0.13965177E+04  -0.24801687E+04   0.65269590E+04   0.13910095E+04
  -0.25623225E+04   0.66461445E+04
   0.16436882E+04  -0.25788328E+04   0.65251113E+04   0.16396788E+04
  -0.26572354E+04   0.66456768E+04
   0.18941600E+04  -0.26692407E+04   0.65242676E+04   0.18916431E+04
  -0.27425217E+04   0.66458613E+04
   0.21472214E+04  -0.27524683E+04   0.65230938E+04   0.21454927E+04
  -0.28215425E+04   0.66452319E+04
   0.24029324E+04  -0.28259109E+04   0.65201479E+04   0.24017551E+04
  -0.28925366E+04   0.66445649E+04
   0.26563113E+04  -0.29075063E+04   0.65168315E+04   0.26546763E+04
  -0.29749365E+04   0.66421460E+04
   0.29087407E+04  -0.29914131E+04   0.65133877E+04   0.29051431E+04
  -0.30634087E+04   0.66375635E+04
   0.31567180E+04  -0.30869102E+04   0.65064595E+04   0.31506489E+04
  -0.31639048E+04   0.66313662E+04
   0.34035249E+04  -0.31868728E+04   0.65001387E+04   0.33957329E+04
  -0.32660203E+04   0.66253433E+04
  -0.14358447E+04  -0.10823945E+04   0.63888027E+04  -0.14396367E+04
  -0.11628676E+04   0.64934224E+04
  -0.11708031E+04  -0.10882758E+04   0.63978862E+04  -0.11746516E+04
  -0.11755255E+04   0.65050947E+04
  -0.91670453E+03  -0.11573955E+04   0.64054985E+04  -0.91934906E+03
  -0.12481504E+04   0.65153735E+04
  -0.68874884E+03  -0.12941842E+04   0.64132124E+04  -0.69342285E+03
  -0.13915570E+04   0.65248242E+04
  -0.48326883E+03  -0.14642997E+04   0.64217617E+04  -0.49175543E+03
  -0.15703975E+04   0.65347266E+04
  -0.27386807E+03  -0.16299720E+04   0.64319312E+04  -0.28261853E+03
  -0.17379347E+04   0.65457690E+04
  -0.37060638E+02  -0.17450840E+04   0.64444497E+04  -0.37859238E+02
  -0.18354706E+04   0.65612344E+04
   0.22284445E+03  -0.17977245E+04   0.64590581E+04   0.22250410E+03
  -0.18851630E+04   0.65772798E+04
   0.48494266E+03  -0.18449280E+04   0.64732388E+04   0.48208902E+03
  -0.19415337E+04   0.65924331E+04
   0.73594769E+03  -0.19330103E+04   0.64846157E+04   0.73129425E+03
  -0.20356090E+04   0.66046357E+04
   0.98064935E+03  -0.20395607E+04   0.64924219E+04   0.97648669E+03
  -0.21410305E+04   0.66123672E+04
   0.12287625E+04  -0.21384165E+04   0.64960601E+04   0.12230724E+04
  -0.22418467E+04   0.66166475E+04
   0.14790957E+04  -0.22304636E+04   0.64963101E+04   0.14726700E+04
  -0.23351968E+04   0.66166475E+04
   0.17246243E+04  -0.23347378E+04   0.64921016E+04   0.17207933E+04
  -0.24327031E+04   0.66130190E+04
   0.19759393E+04  -0.24227766E+04   0.64853096E+04   0.19739995E+04
  -0.25136575E+04   0.66073711E+04
   0.22338252E+04  -0.24918074E+04   0.64771196E+04   0.22320830E+04
  -0.25785120E+04   0.65997178E+04
   0.24923301E+04  -0.25581245E+04   0.64669688E+04   0.24915271E+04
  -0.26387922E+04   0.65908174E+04
   0.27508865E+04  -0.26235635E+04   0.64552803E+04   0.27496099E+04
  -0.27035662E+04   0.65796714E+04
   0.30094287E+04  -0.26882461E+04   0.64423008E+04   0.30048025E+04
  -0.27781675E+04   0.65672832E+04
   0.32586309E+04  -0.27803684E+04   0.64260381E+04   0.32500725E+04
  -0.28766377E+04   0.65510454E+04
   0.35100137E+04  -0.28689421E+04   0.64077627E+04   0.34997678E+04
  -0.29653784E+04   0.65322075E+04
  -0.13637761E+04  -0.92226276E+03   0.63908188E+04  -0.13741495E+04
  -0.10021058E+04   0.64958569E+04
  -0.11062097E+04  -0.93911560E+03   0.63993608E+04  -0.11133667E+04
  -0.10259434E+04   0.65068584E+04
  -0.85677362E+03  -0.10147186E+04   0.64071948E+04  -0.86070874E+03
  -0.11079354E+04   0.65171475E+04
  -0.62763477E+03  -0.11403158E+04   0.64150488E+04  -0.63076624E+03
  -0.12412169E+04   0.65269590E+04
  -0.41779352E+03  -0.12973715E+04   0.64235972E+04  -0.42171109E+03
  -0.14056420E+04   0.65372236E+04
  -0.20057941E+03  -0.14484031E+04   0.64340054E+04  -0.20342355E+03
  -0.15579644E+04   0.65494434E+04
   0.40579079E+02  -0.15531967E+04   0.64473076E+04   0.42054466E+02
  -0.16544022E+04   0.65647402E+04
   0.29389108E+03  -0.16270569E+04   0.64621099E+04   0.29650562E+03
  -0.17255432E+04   0.65808452E+04
   0.55234088E+03  -0.16896079E+04   0.64763213E+04   0.55364032E+03
  -0.17927035E+04   0.65961143E+04
   0.80537653E+03  -0.17733801E+04   0.64879941E+04   0.80530133E+03
  -0.18801505E+04   0.66081802E+04
   0.10549365E+04  -0.18684998E+04   0.64955801E+04   0.10543180E+04
  -0.19761876E+04   0.66164780E+04
   0.13040770E+04  -0.19653691E+04   0.64997456E+04   0.13023809E+04
  -0.20734431E+04   0.66205991E+04
   0.15536493E+04  -0.20546145E+04   0.65000049E+04   0.15514589E+04
  -0.21621382E+04   0.66209238E+04
   0.18048539E+04  -0.21385137E+04   0.64967798E+04   0.18037111E+04
  -0.22413669E+04   0.66180654E+04
   0.20596589E+04  -0.22162961E+04   0.64911777E+04   0.20594744E+04
  -0.23135371E+04   0.66134258E+04
   0.23162517E+04  -0.22913308E+04   0.64831738E+04   0.23161406E+04
  -0.23834990E+04   0.66059146E+04
   0.25754009E+04  -0.23578396E+04   0.64733784E+04   0.25748518E+04
  -0.24460244E+04   0.65974927E+04
   0.28325142E+04  -0.24329421E+04   0.64625210E+04   0.28300083E+04
  -0.25204229E+04   0.65872720E+04
   0.30916682E+04  -0.25036250E+04   0.64509253E+04   0.30850503E+04
  -0.25947437E+04   0.65756011E+04
   0.33473433E+04  -0.25873042E+04   0.64367007E+04   0.33356348E+04
  -0.26817336E+04   0.65620317E+04
   0.36019617E+04  -0.26659119E+04   0.64211665E+04   0.35858762E+04
  -0.27613550E+04   0.65475156E+04
  -0.12903552E+04  -0.76742133E+03   0.63925586E+04  -0.13091558E+04
  -0.84073975E+03   0.64974854E+04
  -0.10419747E+04  -0.79439050E+03   0.64006265E+04  -0.10526222E+04
  -0.87770270E+03   0.65084292E+04
  -0.79789038E+03  -0.87410956E+03   0.64083540E+04  -0.80211572E+03
  -0.96672961E+03   0.65189077E+04
  -0.56737067E+03  -0.98916193E+03   0.64167441E+04  -0.56762311E+03
  -0.10898176E+04   0.65292446E+04
  -0.35160422E+03  -0.11306250E+04   0.64257114E+04  -0.34979626E+03
  -0.12372079E+04   0.65401738E+04
  -0.12745245E+03  -0.12682747E+04   0.64370273E+04  -0.12369869E+03
  -0.13762880E+04   0.65531953E+04
   0.11614349E+03  -0.13692002E+04   0.64505186E+04   0.12209167E+03
  -0.14750697E+04   0.65683916E+04
   0.36475671E+03  -0.14593403E+04   0.64647754E+04   0.37172104E+03
  -0.15640786E+04   0.65841914E+04
   0.62072748E+03  -0.15327507E+04   0.64783940E+04   0.62722192E+03
  -0.16388568E+04   0.65988276E+04
   0.87494958E+03  -0.16152028E+04   0.64894897E+04   0.88041962E+03
  -0.17230696E+04   0.66105967E+04
   0.11277078E+04  -0.17034781E+04   0.64971714E+04   0.11321313E+04
  -0.18114464E+04   0.66180654E+04
   0.13787140E+04  -0.17960992E+04   0.65014707E+04   0.13821666E+04
  -0.19043162E+04   0.66231846E+04
   0.16295997E+04  -0.18774808E+04   0.65024106E+04   0.16324285E+04
  -0.19840439E+04   0.66242622E+04
   0.18848127E+04  -0.19457905E+04   0.65002744E+04   0.18875275E+04
  -0.20489697E+04   0.66224683E+04
   0.21425942E+04  -0.20148639E+04   0.64955801E+04   0.21452185E+04
  -0.21134478E+04   0.66180654E+04
   0.23991863E+04  -0.20919761E+04   0.64881118E+04   0.24011934E+04
  -0.21863887E+04   0.66113896E+04
   0.26577620E+04  -0.21630540E+04   0.64792090E+04   0.26581504E+04
  -0.22543650E+04   0.66034292E+04
   0.29140024E+04  -0.22451541E+04   0.64690352E+04   0.29111523E+04
  -0.23349551E+04   0.65939517E+04
   0.31747188E+04  -0.23184067E+04   0.64582529E+04   0.31665293E+04
  -0.24080925E+04   0.65839639E+04
   0.34354663E+04  -0.23988894E+04   0.64460562E+04   0.34200110E+04
  -0.24878030E+04   0.65724697E+04
   0.36953398E+04  -0.24674819E+04   0.64331001E+04   0.36716936E+04
  -0.25541819E+04   0.65601841E+04
  -0.12175366E+04  -0.61381982E+03   0.63933477E+04  -0.12444044E+04
  -0.67982263E+03   0.64988608E+04
  -0.97927423E+03  -0.65087189E+03   0.64014771E+04  -0.99168335E+03
  -0.73081427E+03   0.65098496E+04
  -0.74006952E+03  -0.73361646E+03   0.64094478E+04  -0.74261700E+03
  -0.82452863E+03   0.65203398E+04
  -0.50698483E+03  -0.83720929E+03   0.64180732E+04  -0.50295197E+03
  -0.93674359E+03   0.65312734E+04
  -0.28421716E+03  -0.96252301E+03   0.64279502E+04  -0.27632748E+03
  -0.10673378E+04   0.65430010E+04
  -0.55097076E+02  -0.10903376E+04   0.64396089E+04  -0.44760994E+02
  -0.11977612E+04   0.65567583E+04
   0.18891380E+03  -0.11927610E+04   0.64531870E+04   0.20075192E+03
  -0.13008048E+04   0.65721196E+04
   0.43513306E+03  -0.12926522E+04   0.64672007E+04   0.44761823E+03
  -0.14004242E+04   0.65873882E+04
   0.69083704E+03  -0.13696429E+04   0.64802241E+04   0.70310870E+03
  -0.14776874E+04   0.66017085E+04
   0.94539954E+03  -0.14541675E+04   0.64910293E+04   0.95678717E+03
  -0.15622684E+04   0.66131533E+04
   0.11993777E+04  -0.15415752E+04   0.64988066E+04   0.12095332E+04
  -0.16491857E+04   0.66210410E+04
   0.14527164E+04  -0.16290946E+04   0.65031636E+04   0.14616871E+04
  -0.17360149E+04   0.66259531E+04
   0.17064810E+04  -0.16984417E+04   0.65046348E+04   0.17144094E+04
  -0.18033208E+04   0.66275166E+04
   0.19647173E+04  -0.17538989E+04   0.65033608E+04   0.19717382E+04
  -0.18558180E+04   0.66263589E+04
   0.22247727E+04  -0.18159279E+04   0.64990840E+04   0.22308667E+04
  -0.19147754E+04   0.66229341E+04
   0.24819963E+04  -0.18934063E+04   0.64924219E+04   0.24866909E+04
  -0.19890565E+04   0.66171655E+04
   0.27398518E+04  -0.19696752E+04   0.64845327E+04   0.27420884E+04
  -0.20621162E+04   0.66095566E+04
   0.29956948E+04  -0.20563154E+04   0.64751714E+04   0.29938296E+04
  -0.21463247E+04   0.66009712E+04
   0.32578789E+04  -0.21306104E+04   0.64655889E+04   0.32495034E+04
  -0.22181726E+04   0.65925430E+04
   0.35218955E+04  -0.22104905E+04   0.64549048E+04   0.35038374E+04
  -0.22940737E+04   0.65826987E+04
   0.37871677E+04  -0.22703660E+04   0.64440737E+04   0.37557607E+04
  -0.23475588E+04   0.65727422E+04
  -0.11522346E+04  -0.45340091E+03   0.63933477E+04  -0.11786497E+04
  -0.51829138E+03   0.64997456E+04
  -0.91928345E+03  -0.50609613E+03   0.64021572E+04  -0.92957477E+03
  -0.58440735E+03   0.65106963E+04
  -0.68342444E+03  -0.59228583E+03   0.64104087E+04  -0.68168201E+03
  -0.68228998E+03   0.65216855E+04
  -0.44656680E+03  -0.68434430E+03   0.64193516E+04  -0.43673538E+03
  -0.78315753E+03   0.65332134E+04
  -0.21640163E+03  -0.79348468E+03   0.64296758E+04  -0.20191901E+03
  -0.89776331E+03   0.65455928E+04
   0.16561525E+02  -0.91409479E+03   0.64416597E+04   0.33669415E+02
  -0.10216972E+04   0.65597554E+04
   0.26009268E+03  -0.10196310E+04   0.64552803E+04   0.27852338E+03
  -0.11288456E+04   0.65752437E+04
   0.50495325E+03  -0.11253380E+04   0.64689385E+04   0.52381543E+03
  -0.12350261E+04   0.65904521E+04
   0.76169672E+03  -0.12018961E+04   0.64817056E+04   0.78024487E+03
  -0.13110601E+04   0.66042559E+04
   0.10163672E+04  -0.12894783E+04   0.64922607E+04   0.10339438E+04
  -0.13974318E+04   0.66153394E+04
   0.12706667E+04  -0.13789652E+04   0.64998735E+04   0.12868470E+04
  -0.14859500E+04   0.66236694E+04
   0.15264283E+04  -0.14623479E+04   0.65047480E+04   0.15409937E+04
  -0.15674713E+04   0.66285156E+04
   0.17834913E+04  -0.15182147E+04   0.65061997E+04   0.17965522E+04
  -0.16213744E+04   0.66303389E+04
   0.20444941E+04  -0.15608920E+04   0.65049780E+04   0.20560610E+04
  -0.16619365E+04   0.66297373E+04
   0.23065535E+04  -0.16167679E+04   0.65012314E+04   0.23165210E+04
  -0.17155782E+04   0.66268745E+04
   0.25645942E+04  -0.16943708E+04   0.64955586E+04   0.25725110E+04
  -0.17902294E+04   0.66215249E+04
   0.28219395E+04  -0.17750856E+04   0.64884727E+04   0.28269263E+04
  -0.18677749E+04   0.66147241E+04
   0.30775076E+04  -0.18652778E+04   0.64801470E+04   0.30780396E+04
  -0.19549429E+04   0.66075269E+04
   0.33406333E+04  -0.19399532E+04   0.64719146E+04   0.33341199E+04
  -0.20252218E+04   0.65997178E+04
   0.36059390E+04  -0.20185958E+04   0.64626821E+04   0.35888108E+04
  -0.20985786E+04   0.65915928E+04
   0.38710728E+04  -0.20641436E+04   0.64539565E+04   0.38409067E+04
  -0.21382866E+04   0.65843271E+04
  -0.10871910E+04  -0.29361621E+03   0.63944150E+04  -0.11128146E+04
  -0.35656235E+03   0.65003438E+04
  -0.86199274E+03  -0.35907849E+03   0.64026113E+04  -0.86565997E+03
  -0.43921027E+03   0.65118887E+04
  -0.62803955E+03  -0.44996371E+03   0.64111587E+04  -0.61904437E+03
  -0.54097906E+03   0.65232192E+04
  -0.38641525E+03  -0.53145953E+03   0.64207109E+04  -0.36918396E+03
  -0.63019385E+03   0.65352070E+04
  -0.14852402E+03  -0.62460309E+03   0.64313677E+04  -0.12676686E+03
  -0.72916284E+03   0.65482275E+04
   0.87988098E+02  -0.73828442E+03   0.64434448E+04   0.11204336E+03
  -0.84681195E+03   0.65623618E+04
   0.33058176E+03  -0.84658466E+03   0.64566177E+04   0.35586398E+03
  -0.95708350E+03   0.65775581E+04
   0.57416168E+03  -0.95690021E+03   0.64699478E+04   0.59985889E+03
  -0.10673059E+04   0.65923242E+04
   0.83233826E+03  -0.10307109E+04   0.64820977E+04   0.85765637E+03
  -0.11402240E+04   0.66056709E+04
   0.10873259E+04  -0.11209114E+04   0.64924219E+04   0.11113759E+04
  -0.12290189E+04   0.66168184E+04
   0.13418698E+04  -0.12142190E+04   0.65002744E+04   0.13639723E+04
  -0.13200424E+04   0.66247808E+04
   0.15998252E+04  -0.12942926E+04   0.65048628E+04   0.16199692E+04
  -0.13974724E+04   0.66297373E+04
   0.18601429E+04  -0.13367982E+04   0.65060723E+04   0.18784286E+04
  -0.14379542E+04   0.66317734E+04
   0.21239575E+04  -0.13663716E+04   0.65049780E+04   0.21401797E+04
  -0.14661554E+04   0.66313662E+04
   0.23880625E+04  -0.14159564E+04   0.65018853E+04   0.24020286E+04
  -0.15144385E+04   0.66288359E+04
   0.26470596E+04  -0.14937172E+04   0.64971714E+04   0.26585107E+04
  -0.15897194E+04   0.66242622E+04
   0.29040747E+04  -0.15787405E+04   0.64908823E+04   0.29124988E+04
  -0.16711006E+04   0.66180654E+04
   0.31593206E+04  -0.16723578E+04   0.64838984E+04   0.31636621E+04
  -0.17610928E+04   0.66126235E+04
   0.34227678E+04  -0.17463824E+04   0.64763213E+04   0.34206270E+04
  -0.18305887E+04   0.66061040E+04
   0.36884463E+04  -0.18230819E+04   0.64682900E+04   0.36758721E+04
  -0.19014900E+04   0.65990020E+04
   0.39557747E+04  -0.18559625E+04   0.64613232E+04   0.39268250E+04
  -0.19271152E+04   0.65937051E+04
  -0.10360610E+04  -0.12053028E+03   0.63890376E+04  -0.10405009E+04
  -0.19592770E+03   0.64990840E+04
  -0.80762354E+03  -0.20737355E+03   0.64014771E+04  -0.79895160E+03
  -0.29545920E+03   0.65130581E+04
  -0.57381964E+03  -0.30635965E+03   0.64110830E+04  -0.55485986E+03
  -0.40018509E+03   0.65239976E+04
  -0.32691153E+03  -0.37878589E+03   0.64209360E+04  -0.30067407E+03
  -0.47817786E+03   0.65369541E+04
  -0.80722412E+02  -0.45613583E+03   0.64326865E+04  -0.51106010E+02
  -0.56090668E+03   0.65503989E+04
   0.15982521E+03  -0.56093597E+03   0.64447666E+04   0.19079854E+03
  -0.67207379E+03   0.65650000E+04
   0.40114963E+03  -0.67176691E+03   0.64573384E+04   0.43303574E+03
  -0.78502814E+03   0.65795107E+04
   0.64277441E+03  -0.78783832E+03   0.64704922E+04   0.67583893E+03
  -0.89855048E+03   0.65943311E+04
   0.90244904E+03  -0.85951196E+03   0.64830376E+04   0.93504260E+03
  -0.96760815E+03   0.66072949E+04
   0.11585494E+04  -0.94956134E+03   0.64930820E+04   0.11887560E+04
  -0.10573912E+04   0.66175200E+04
   0.14132377E+04  -0.10467014E+04   0.65000713E+04   0.14410994E+04
  -0.11530696E+04   0.66261938E+04
   0.16730289E+04  -0.11266532E+04   0.65045225E+04   0.16986577E+04
  -0.12273175E+04   0.66307144E+04
   0.19365685E+04  -0.11565780E+04   0.65056963E+04   0.19600308E+04
  -0.12537551E+04   0.66323354E+04
   0.22032288E+04  -0.11708453E+04   0.65047480E+04   0.22240525E+04
  -0.12682068E+04   0.66319121E+04
   0.24695127E+04  -0.12127679E+04   0.65017168E+04   0.24872930E+04
  -0.13114729E+04   0.66296206E+04
   0.27295339E+04  -0.12913838E+04   0.64976948E+04   0.27443979E+04
  -0.13886500E+04   0.66260327E+04
   0.29863499E+04  -0.13815598E+04   0.64925845E+04   0.29986450E+04
  -0.14741083E+04   0.66214902E+04
   0.32412813E+04  -0.14780983E+04   0.64864614E+04   0.32504270E+04
  -0.15649916E+04   0.66161445E+04
   0.35046379E+04  -0.15516642E+04   0.64801084E+04   0.35088691E+04
  -0.16339198E+04   0.66107065E+04
   0.37691255E+04  -0.16248646E+04   0.64726929E+04   0.37659968E+04
  -0.17033796E+04   0.66043950E+04
   0.40322908E+04  -0.16407902E+04   0.64661753E+04   0.40201704E+04
  -0.17152982E+04   0.65995361E+04
  -0.98857733E+03   0.52302292E+02   0.63814771E+04  -0.96821411E+03
  -0.33140205E+02   0.64934224E+04
  -0.75387427E+03  -0.48116436E+02   0.63964146E+04  -0.73127869E+03
  -0.14953607E+03   0.65106963E+04
  -0.52028607E+03  -0.16073174E+03   0.64091274E+04  -0.48998151E+03
  -0.25912949E+03   0.65239976E+04
  -0.26762131E+03  -0.22845432E+03   0.64210508E+04  -0.23194011E+03
  -0.32650168E+03   0.65376914E+04
  -0.12758786E+02  -0.28985861E+03   0.64342495E+04   0.24751299E+02
  -0.39334698E+03   0.65526211E+04
   0.23360620E+03  -0.38216458E+03   0.64474033E+04   0.27038531E+03
  -0.49654169E+03   0.65681099E+04
   0.47267270E+03  -0.49414813E+03   0.64573384E+04   0.51069171E+03
  -0.61591510E+03   0.65839639E+04
   0.71131555E+03  -0.61918817E+03   0.64710640E+04   0.75234711E+03
  -0.72910132E+03   0.65974927E+04
   0.97167499E+03  -0.69207355E+03   0.64846157E+04   0.10129491E+04
  -0.79736499E+03   0.66121157E+04
   0.12317163E+04  -0.77631805E+03   0.64969175E+04   0.12672432E+04
  -0.88610992E+03   0.66215947E+04
   0.14863589E+04  -0.87930005E+03   0.65033608E+04   0.15184878E+04
  -0.98609662E+03   0.66288359E+04
   0.17463019E+04  -0.96184131E+03   0.65047480E+04   0.17771733E+04
  -0.10585609E+04   0.66326255E+04
   0.20134525E+04  -0.98007794E+03   0.65058203E+04   0.20419362E+04
  -0.10709341E+04   0.66338447E+04
   0.22825344E+04  -0.97315332E+03   0.65047480E+04   0.23078474E+04
  -0.10672087E+04   0.66324800E+04
   0.25513774E+04  -0.10057393E+04   0.65004849E+04   0.25723911E+04
  -0.11061316E+04   0.66295049E+04
   0.28120244E+04  -0.10870239E+04   0.64958325E+04   0.28294883E+04
  -0.11884105E+04   0.66264434E+04
   0.30686736E+04  -0.11834355E+04   0.64921016E+04   0.30847712E+04
  -0.12750292E+04   0.66220874E+04
   0.33236221E+04  -0.12817300E+04   0.64865640E+04   0.33378521E+04
  -0.13658274E+04   0.66173418E+04
   0.35863801E+04  -0.13551024E+04   0.64803042E+04   0.35981133E+04
  -0.14347078E+04   0.66130190E+04
   0.38502034E+04  -0.14242354E+04   0.64742476E+04   0.38571709E+04
  -0.15043800E+04   0.66067798E+04
   0.41102749E+04  -0.14255941E+04   0.64678545E+04   0.41151035E+04
  -0.15023362E+04   0.66011177E+04
  -0.97290662E+03   0.29916837E+03   0.62717666E+04  -0.93334552E+03
   0.20923854E+03   0.63874902E+04
  -0.72180054E+03   0.20811703E+03   0.62980991E+04  -0.68998688E+03
   0.91238495E+02   0.64153291E+04
  -0.49411835E+03   0.59562305E+02   0.63215742E+04  -0.45329391E+03
  -0.45040325E+02   0.64421382E+04
  -0.23339049E+03  -0.20462034E+02   0.63480625E+04  -0.18825081E+03
  -0.11998872E+03   0.64710640E+04
   0.34588535E+02  -0.76910423E+02   0.63764663E+04   0.80002113E+02
  -0.18076010E+03   0.65004849E+04
   0.29472894E+03  -0.15851152E+03   0.64043369E+04   0.33668811E+03
  -0.27970929E+03   0.65300000E+04
   0.53758380E+03  -0.28962393E+03   0.64298252E+04   0.57542218E+03
  -0.41061172E+03   0.65498320E+04
   0.77087769E+03  -0.42731198E+03   0.64426309E+04   0.81797095E+03
  -0.53151196E+03   0.65692329E+04
   0.10319681E+04  -0.51355560E+03   0.64621377E+04   0.10775737E+04
  -0.60366736E+03   0.65829258E+04
   0.12990266E+04  -0.57362756E+03   0.64724282E+04   0.13358052E+04
  -0.68215222E+03   0.65915928E+04
   0.15520317E+04  -0.68153033E+03   0.64726929E+04   0.15852361E+04
  -0.78514282E+03   0.65926538E+04
   0.18108250E+04  -0.77429608E+03   0.64700547E+04   0.18433514E+04
  -0.85856372E+03   0.65901880E+04
   0.20833987E+04  -0.78374756E+03   0.64702710E+04   0.21136309E+04
  -0.86173950E+03   0.65922168E+04
   0.23551133E+04  -0.74934259E+03   0.64716655E+04   0.23828037E+04
  -0.83580609E+03   0.65945903E+04
   0.26289575E+04  -0.77093500E+03   0.64652852E+04   0.26509915E+04
  -0.86833331E+03   0.65900161E+04
   0.28900593E+04  -0.85312030E+03   0.64550283E+04   0.29074180E+04
  -0.95431061E+03   0.65815537E+04
   0.31449844E+04  -0.95602692E+03   0.64460220E+04   0.31639265E+04
  -0.10432871E+04   0.65757222E+04
   0.34012522E+04  -0.10563861E+04   0.64410439E+04   0.34188743E+04
  -0.11376093E+04   0.65734102E+04
   0.36635532E+04  -0.11385432E+04   0.64407451E+04   0.36814309E+04
  -0.12124585E+04   0.65757222E+04
   0.39311726E+04  -0.12037924E+04   0.64438232E+04   0.39435007E+04
  -0.12884818E+04   0.65806724E+04
   0.41904155E+04  -0.12019951E+04   0.64480693E+04   0.42055361E+04
  -0.12803058E+04   0.65875669E+04
  -0.86537903E+03   0.49077042E+03   0.62825361E+04  -0.83988159E+03
   0.40871732E+03   0.63945522E+04
  -0.63205255E+03   0.37919534E+03   0.63049639E+04  -0.60489117E+03
   0.28253925E+03   0.64202739E+04
  -0.40079300E+03   0.25240152E+03   0.63272178E+04  -0.36611594E+03
   0.15621892E+03   0.64469468E+04
  -0.14195172E+03   0.17948631E+03   0.63539907E+04  -0.10189021E+03
   0.82867409E+02   0.64775259E+04
   0.12456326E+03   0.11688226E+03   0.63850562E+04   0.16620410E+03
   0.15182011E+02   0.65103525E+04
   0.38014987E+03   0.15744298E+02   0.64169629E+04   0.42022775E+03
  -0.94165512E+02   0.65417158E+04
   0.62419690E+03  -0.11417934E+03   0.64446826E+04   0.66362286E+03
  -0.22457108E+03   0.65681553E+04
   0.86461975E+03  -0.24803607E+03   0.64657783E+04   0.90651227E+03
  -0.34626044E+03   0.65875669E+04
   0.11273844E+04  -0.32203906E+03   0.64833135E+04   0.11690942E+04
  -0.41479565E+03   0.66046855E+04
   0.13861110E+04  -0.40628375E+03   0.64925845E+04   0.14228888E+04
  -0.50405627E+03   0.66126235E+04
   0.16386071E+04  -0.50726859E+03   0.64930820E+04   0.16718958E+04
  -0.60153339E+03   0.66131533E+04
   0.18984773E+04  -0.58532178E+03   0.64898931E+04   0.19300470E+04
  -0.66922418E+03   0.66110430E+04
   0.21672683E+04  -0.59527100E+03   0.64890986E+04   0.21964365E+04
  -0.67418726E+03   0.66111577E+04