-- GRID PETE 595 Project     Date:  10/26/09  Time: 09:18:59
--                           Model: SECTOR   Grid: CP
--

SPECGRID
  20    5   10  /

COORD
          0.             0.       6825.000             0.             0.    
    7023.000    
    300.0000             0.       6835.000       300.0000             0.    
    7033.000    
    600.0000             0.       6845.000       600.0000             0.    
    7043.000    
    900.0000             0.       6855.000       900.0000             0.    
    7053.000    
    1200.000             0.       6865.000       1200.000             0.    
    7063.000    
    1500.000             0.       6875.000       1500.000             0.    
    7073.000    
    1800.000             0.       6885.000       1800.000             0.    
    7083.000    
    2100.000             0.       6895.000       2100.000             0.    
    7093.000    
    2400.000             0.       6905.000       2400.000             0.    
    7103.000    
    2700.000             0.       6915.000       2700.000             0.    
    7113.000    
    3000.000             0.       6925.000       3000.000             0.    
    7123.000    
    3300.000             0.       6985.000       3300.000             0.    
    7183.000    
    3600.000             0.       6995.000       3600.000             0.    
    7193.000    
    3900.000             0.       7005.000       3900.000             0.    
    7203.000    
    4200.000             0.       7015.000       4200.000             0.    
    7213.000    
    4500.000             0.       7025.000       4500.000             0.    
    7223.000    
    4800.000             0.       7035.000       4800.000             0.    
    7233.000    
    5100.000             0.       7045.000       5100.000             0.    
    7243.000    
    5400.000             0.       7055.000       5400.000             0.    
    7253.000    
    5700.000             0.       7065.000       5700.000             0.    
    7263.000    
    6000.000             0.       7075.000       6000.000             0.    
    7273.000    

          0.       1000.000       6875.000             0.       1000.000    
    7073.000    
    300.0000       1000.000       6885.000       300.0000       1000.000    
    7083.000    
    600.0000       1000.000       6895.000       600.0000       1000.000    
    7093.000    
    900.0000       1000.000       6905.000       900.0000       1000.000    
    7103.000    
    1200.000       1000.000       6915.000       1200.000       1000.000    
    7113.000    
    1500.000       1000.000       6925.000       1500.000       1000.000    
    7123.000    
    1800.000       1000.000       6935.000       1800.000       1000.000    
    7133.000    
    2100.000       1000.000       6945.000       2100.000       1000.000    
    7143.000    
    2400.000       1000.000       6955.000       2400.000       1000.000    
    7153.000    
    2700.000       1000.000       6965.000       2700.000       1000.000    
    7163.000    
    3000.000       1000.000       6975.000       3000.000       1000.000    
    7173.000    
    3300.000       1000.000       7035.000       3300.000       1000.000    
    7233.000    
    3600.000       1000.000       7045.000       3600.000       1000.000    
    7243.000    
    3900.000       1000.000       7055.000       3900.000       1000.000    
    7253.000    
    4200.000       1000.000       7065.000       4200.000       1000.000    
    7263.000    
    4500.000       1000.000       7075.000       4500.000       1000.000    
    7273.000    
    4800.000       1000.000       7085.000       4800.000       1000.000    
    7283.000    
    5100.000       1000.000       7095.000       5100.000       1000.000    
    7293.000    
    5400.000       1000.000       7105.000       5400.000       1000.000    
    7303.000    
    5700.000       1000.000       7115.000       5700.000       1000.000    
    7313.000    
    6000.000       1000.000       7125.000       6000.000       1000.000    
    7323.000    

          0.       2000.000       6975.000             0.       2000.000    
    7173.000    
    300.0000       2000.000       6985.000       300.0000       2000.000    
    7183.000    
    600.0000       2000.000       6995.000       600.0000       2000.000    
    7193.000    
    900.0000       2000.000       7005.000       900.0000       2000.000    
    7203.000    
    1200.000       2000.000       7015.000       1200.000       2000.000    
    7213.000    
    1500.000       2000.000       7025.000       1500.000       2000.000    
    7223.000    
    1800.000       2000.000       7035.000       1800.000       2000.000    
    7233.000    
    2100.000       2000.000       7045.000       2100.000       2000.000    
    7243.000    
    2400.000       2000.000       7055.000       2400.000       2000.000    
    7253.000    
    2700.000       2000.000       7065.000       2700.000       2000.000    
    7263.000    
    3000.000       2000.000       7075.000       3000.000       2000.000    
    7273.000    
    3300.000       2000.000       7135.000       3300.000       2000.000    
    7333.000    
    3600.000       2000.000       7145.000       3600.000       2000.000    
    7343.000    
    3900.000       2000.000       7155.000       3900.000       2000.000    
    7353.000    
    4200.000       2000.000       7165.000       4200.000       2000.000    
    7363.000    
    4500.000       2000.000       7175.000       4500.000       2000.000    
    7373.000    
    4800.000       2000.000       7185.000       4800.000       2000.000    
    7383.000    
    5100.000       2000.000       7195.000       5100.000       2000.000    
    7393.000    
    5400.000       2000.000       7205.000       5400.000       2000.000    
    7403.000    
    5700.000       2000.000       7215.000       5700.000       2000.000    
    7413.000    
    6000.000       2000.000       7225.000       6000.000       2000.000    
    7423.000    

          0.       3000.000       7075.000             0.       3000.000    
    7273.000    
    300.0000       3000.000       7085.000       300.0000       3000.000    
    7283.000    
    600.0000       3000.000       7095.000       600.0000       3000.000    
    7293.000    
    900.0000       3000.000       7105.000       900.0000       3000.000    
    7303.000    
    1200.000       3000.000       7115.000       1200.000       3000.000    
    7313.000    
    1500.000       3000.000       7125.000       1500.000       3000.000    
    7323.000    
    1800.000       3000.000       7135.000       1800.000       3000.000    
    7333.000    
    2100.000       3000.000       7145.000       2100.000       3000.000    
    7343.000    
    2400.000       3000.000       7155.000       2400.000       3000.000    
    7353.000    
    2700.000       3000.000       7165.000       2700.000       3000.000    
    7363.000    
    3000.000       3000.000       7175.000       3000.000       3000.000    
    7373.000    
    3300.000       3000.000       7235.000       3300.000       3000.000    
    7433.000    
    3600.000       3000.000       7245.000       3600.000       3000.000    
    7443.000    
    3900.000       3000.000       7255.000       3900.000       3000.000    
    7453.000    
    4200.000       3000.000       7265.000       4200.000       3000.000    
    7463.000    
    4500.000       3000.000       7275.000       4500.000       3000.000    
    7473.000    
    4800.000       3000.000       7285.000       4800.000       3000.000    
    7483.000    
    5100.000       3000.000       7295.000       5100.000       3000.000    
    7493.000    
    5400.000       3000.000       7305.000       5400.000       3000.000    
    7503.000    
    5700.000       3000.000       7315.000       5700.000       3000.000    
    7513.000    
    6000.000       3000.000       7325.000       6000.000       3000.000    
    7523.000    

          0.       4000.000       7175.000             0.       4000.000    
    7373.000    
    300.0000       4000.000       7185.000       300.0000       4000.000    
    7383.000    
    600.0000       4000.000       7195.000       600.0000       4000.000    
    7393.000    
    900.0000       4000.000       7205.000       900.0000       4000.000    
    7403.000    
    1200.000       4000.000       7215.000       1200.000       4000.000    
    7413.000    
    1500.000       4000.000       7225.000       1500.000       4000.000    
    7423.000    
    1800.000       4000.000       7235.000       1800.000       4000.000    
    7433.000    
    2100.000       4000.000       7245.000       2100.000       4000.000    
    7443.000    
    2400.000       4000.000       7255.000       2400.000       4000.000    
    7453.000    
    2700.000       4000.000       7265.000       2700.000       4000.000    
    7463.000    
    3000.000       4000.000       7275.000       3000.000       4000.000    
    7473.000    
    3300.000       4000.000       7335.000       3300.000       4000.000    
    7533.000    
    3600.000       4000.000       7345.000       3600.000       4000.000    
    7543.000    
    3900.000       4000.000       7355.000       3900.000       4000.000    
    7553.000    
    4200.000       4000.000       7365.000       4200.000       4000.000    
    7563.000    
    4500.000       4000.000       7375.000       4500.000       4000.000    
    7573.000    
    4800.000       4000.000       7385.000       4800.000       4000.000    
    7583.000    
    5100.000       4000.000       7395.000       5100.000       4000.000    
    7593.000    
    5400.000       4000.000       7405.000       5400.000       4000.000    
    7603.000    
    5700.000       4000.000       7415.000       5700.000       4000.000    
    7613.000    
    6000.000       4000.000       7425.000       6000.000       4000.000    
    7623.000    

          0.       5000.000       7225.000             0.       5000.000    
    7423.000    
    300.0000       5000.000       7235.000       300.0000       5000.000    
    7433.000    
    600.0000       5000.000       7245.000       600.0000       5000.000    
    7443.000    
    900.0000       5000.000       7255.000       900.0000       5000.000    
    7453.000    
    1200.000       5000.000       7265.000       1200.000       5000.000    
    7463.000    
    1500.000       5000.000       7275.000       1500.000       5000.000    
    7473.000    
    1800.000       5000.000       7285.000       1800.000       5000.000    
    7483.000    
    2100.000       5000.000       7295.000       2100.000       5000.000    
    7493.000    
    2400.000       5000.000       7305.000       2400.000       5000.000    
    7503.000    
    2700.000       5000.000       7315.000       2700.000       5000.000    
    7513.000    
    3000.000       5000.000       7325.000       3000.000       5000.000    
    7523.000    
    3300.000       5000.000       7385.000       3300.000       5000.000    
    7583.000    
    3600.000       5000.000       7395.000       3600.000       5000.000    
    7593.000    
    3900.000       5000.000       7405.000       3900.000       5000.000    
    7603.000    
    4200.000       5000.000       7415.000       4200.000       5000.000    
    7613.000    
    4500.000       5000.000       7425.000       4500.000       5000.000    
    7623.000    
    4800.000       5000.000       7435.000       4800.000       5000.000    
    7633.000    
    5100.000       5000.000       7445.000       5100.000       5000.000    
    7643.000    
    5400.000       5000.000       7455.000       5400.000       5000.000    
    7653.000    
    5700.000       5000.000       7465.000       5700.000       5000.000    
    7663.000    
    6000.000       5000.000       7475.000       6000.000       5000.000    
    7673.000    

  /

ZCORN
    6825.000       6835.000       6835.000       6845.000       6845.000    
    6855.000       6855.000       6865.000       6865.000       6875.000    
    6875.000       6885.000       6885.000       6895.000       6895.000    
    6905.000       6905.000       6915.000       6915.000       6925.000    
    6975.000       6985.000       6985.000       6995.000       6995.000    
    7005.000       7005.000       7015.000       7015.000       7025.000    
    7025.000       7035.000       7035.000       7045.000       7045.000    
    7055.000       7055.000       7065.000       7065.000       7075.000    

    6875.000       6885.000       6885.000       6895.000       6895.000    
    6905.000       6905.000       6915.000       6915.000       6925.000    
    6925.000       6935.000       6935.000       6945.000       6945.000    
    6955.000       6955.000       6965.000       6965.000       6975.000    
    7025.000       7035.000       7035.000       7045.000       7045.000    
    7055.000       7055.000       7065.000       7065.000       7075.000    
    7075.000       7085.000       7085.000       7095.000       7095.000    
    7105.000       7105.000       7115.000       7115.000       7125.000    

    6875.000       6885.000       6885.000       6895.000       6895.000    
    6905.000       6905.000       6915.000       6915.000       6925.000    
    6925.000       6935.000       6935.000       6945.000       6945.000    
    6955.000       6955.000       6965.000       6965.000       6975.000    
    7025.000       7035.000       7035.000       7045.000       7045.000    
    7055.000       7055.000       7065.000       7065.000       7075.000    
    7075.000       7085.000       7085.000       7095.000       7095.000    
    7105.000       7105.000       7115.000       7115.000       7125.000    

    6975.000       6985.000       6985.000       6995.000       6995.000    
    7005.000       7005.000       7015.000       7015.000       7025.000    
    7025.000       7035.000       7035.000       7045.000       7045.000    
    7055.000       7055.000       7065.000       7065.000       7075.000    
    7125.000       7135.000       7135.000       7145.000       7145.000    
    7155.000       7155.000       7165.000       7165.000       7175.000    
    7175.000       7185.000       7185.000       7195.000       7195.000    
    7205.000       7205.000       7215.000       7215.000       7225.000    

    6975.000       6985.000       6985.000       6995.000       6995.000    
    7005.000       7005.000       7015.000       7015.000       7025.000    
    7025.000       7035.000       7035.000       7045.000       7045.000    
    7055.000       7055.000       7065.000       7065.000       7075.000    
    7125.000       7135.000       7135.000       7145.000       7145.000    
    7155.000       7155.000       7165.000       7165.000       7175.000    
    7175.000       7185.000       7185.000       7195.000       7195.000    
    7205.000       7205.000       7215.000       7215.000       7225.000    

    7075.000       7085.000       7085.000       7095.000       7095.000    
    7105.000       7105.000       7115.000       7115.000       7125.000    
    7125.000       7135.000       7135.000       7145.000       7145.000    
    7155.000       7155.000       7165.000       7165.000       7175.000    
    7225.000       7235.000       7235.000       7245.000       7245.000    
    7255.000       7255.000       7265.000       7265.000       7275.000    
    7275.000       7285.000       7285.000       7295.000       7295.000    
    7305.000       7305.000       7315.000       7315.000       7325.000    

    7075.000       7085.000       7085.000       7095.000       7095.000    
    7105.000       7105.000       7115.000       7115.000       7125.000    
    7125.000       7135.000       7135.000       7145.000       7145.000    
    7155.000       7155.000       7165.000       7165.000       7175.000    
    7225.000       7235.000       7235.000       7245.000       7245.000    
    7255.000       7255.000       7265.000       7265.000       7275.000    
    7275.000       7285.000       7285.000       7295.000       7295.000    
    7305.000       7305.000       7315.000       7315.000       7325.000    

    7175.000       7185.000       7185.000       7195.000       7195.000    
    7205.000       7205.000       7215.000       7215.000       7225.000    
    7225.000       7235.000       7235.000       7245.000       7245.000    
    7255.000       7255.000       7265.000       7265.000       7275.000    
    7325.000       7335.000       7335.000       7345.000       7345.000    
    7355.000       7355.000       7365.000       7365.000       7375.000    
    7375.000       7385.000       7385.000       7395.000       7395.000    
    7405.000       7405.000       7415.000       7415.000       7425.000    

    7175.000       7185.000       7185.000       7195.000       7195.000    
    7205.000       7205.000       7215.000       7215.000       7225.000    
    7225.000       7235.000       7235.000       7245.000       7245.000    
    7255.000       7255.000       7265.000       7265.000       7275.000    
    7325.000       7335.000       7335.000       7345.000       7345.000    
    7355.000       7355.000       7365.000       7365.000       7375.000    
    7375.000       7385.000       7385.000       7395.000       7395.000    
    7405.000       7405.000       7415.000       7415.000       7425.000    

    7225.000       7235.000       7235.000       7245.000       7245.000    
    7255.000       7255.000       7265.000       7265.000       7275.000    
    7275.000       7285.000       7285.000       7295.000       7295.000    
    7305.000       7305.000       7315.000       7315.000       7325.000    
    7375.000       7385.000       7385.000       7395.000       7395.000    
    7405.000       7405.000       7415.000       7415.000       7425.000    
    7425.000       7435.000       7435.000       7445.000       7445.000    
    7455.000       7455.000       7465.000       7465.000       7475.000    

    6857.000       6867.000       6867.000       6877.000       6877.000    
    6887.000       6887.000       6897.000       6897.000       6907.000    
    6907.000       6917.000       6917.000       6927.000       6927.000    
    6937.000       6937.000       6947.000       6947.000       6957.000    
    7007.000       7017.000       7017.000       7027.000       7027.000    
    7037.000       7037.000       7047.000       7047.000       7057.000    
    7057.000       7067.000       7067.000       7077.000       7077.000    
    7087.000       7087.000       7097.000       7097.000       7107.000    

    6907.000       6917.000       6917.000       6927.000       6927.000    
    6937.000       6937.000       6947.000       6947.000       6957.000    
    6957.000       6967.000       6967.000       6977.000       6977.000    
    6987.000       6987.000       6997.000       6997.000       7007.000    
    7057.000       7067.000       7067.000       7077.000       7077.000    
    7087.000       7087.000       7097.000       7097.000       7107.000    
    7107.000       7117.000       7117.000       7127.000       7127.000    
    7137.000       7137.000       7147.000       7147.000       7157.000    

    6907.000       6917.000       6917.000       6927.000       6927.000    
    6937.000       6937.000       6947.000       6947.000       6957.000    
    6957.000       6967.000       6967.000       6977.000       6977.000    
    6987.000       6987.000       6997.000       6997.000       7007.000    
    7057.000       7067.000       7067.000       7077.000       7077.000    
    7087.000       7087.000       7097.000       7097.000       7107.000    
    7107.000       7117.000       7117.000       7127.000       7127.000    
    7137.000       7137.000       7147.000       7147.000       7157.000    

    7007.000       7017.000       7017.000       7027.000       7027.000    
    7037.000       7037.000       7047.000       7047.000       7057.000    
    7057.000       7067.000       7067.000       7077.000       7077.000    
    7087.000       7087.000       7097.000       7097.000       7107.000    
    7157.000       7167.000       7167.000       7177.000       7177.000    
    7187.000       7187.000       7197.000       7197.000       7207.000    
    7207.000       7217.000       7217.000       7227.000       7227.000    
    7237.000       7237.000       7247.000       7247.000       7257.000    

    7007.000       7017.000       7017.000       7027.000       7027.000    
    7037.000       7037.000       7047.000       7047.000       7057.000    
    7057.000       7067.000       7067.000       7077.000       7077.000    
    7087.000       7087.000       7097.000       7097.000       7107.000    
    7157.000       7167.000       7167.000       7177.000       7177.000    
    7187.000       7187.000       7197.000       7197.000       7207.000    
    7207.000       7217.000       7217.000       7227.000       7227.000    
    7237.000       7237.000       7247.000       7247.000       7257.000    

    7107.000       7117.000       7117.000       7127.000       7127.000    
    7137.000       7137.000       7147.000       7147.000       7157.000    
    7157.000       7167.000       7167.000       7177.000       7177.000    
    7187.000       7187.000       7197.000       7197.000       7207.000    
    7257.000       7267.000       7267.000       7277.000       7277.000    
    7287.000       7287.000       7297.000       7297.000       7307.000    
    7307.000       7317.000       7317.000       7327.000       7327.000    
    7337.000       7337.000       7347.000       7347.000       7357.000    

    7107.000       7117.000       7117.000       7127.000       7127.000    
    7137.000       7137.000       7147.000       7147.000       7157.000    
    7157.000       7167.000       7167.000       7177.000       7177.000    
    7187.000       7187.000       7197.000       7197.000       7207.000    
    7257.000       7267.000       7267.000       7277.000       7277.000    
    7287.000       7287.000       7297.000       7297.000       7307.000    
    7307.000       7317.000       7317.000       7327.000       7327.000    
    7337.000       7337.000       7347.000       7347.000       7357.000    

    7207.000       7217.000       7217.000       7227.000       7227.000    
    7237.000       7237.000       7247.000       7247.000       7257.000    
    7257.000       7267.000       7267.000       7277.000       7277.000    
    7287.000       7287.000       7297.000       7297.000       7307.000    
    7357.000       7367.000       7367.000       7377.000       7377.000    
    7387.000       7387.000       7397.000       7397.000       7407.000    
    7407.000       7417.000       7417.000       7427.000       7427.000    
    7437.000       7437.000       7447.000       7447.000       7457.000    

    7207.000       7217.000       7217.000       7227.000       7227.000    
    7237.000       7237.000       7247.000       7247.000       7257.000    
    7257.000       7267.000       7267.000       7277.000       7277.000    
    7287.000       7287.000       7297.000       7297.000       7307.000    
    7357.000       7367.000       7367.000       7377.000       7377.000    
    7387.000       7387.000       7397.000       7397.000       7407.000    
    7407.000       7417.000       7417.000       7427.000       7427.000    
    7437.000       7437.000       7447.000       7447.000       7457.000    

    7257.000       7267.000       7267.000       7277.000       7277.000    
    7287.000       7287.000       7297.000       7297.000       7307.000    
    7307.000       7317.000       7317.000       7327.000       7327.000    
    7337.000       7337.000       7347.000       7347.000       7357.000    
    7407.000       7417.000       7417.000       7427.000       7427.000    
    7437.000       7437.000       7447.000       7447.000       7457.000    
    7457.000       7467.000       7467.000       7477.000       7477.000    
    7487.000       7487.000       7497.000       7497.000       7507.000    

    6857.000       6867.000       6867.000       6877.000       6877.000    
    6887.000       6887.000       6897.000       6897.000       6907.000    
    6907.000       6917.000       6917.000       6927.000       6927.000    
    6937.000       6937.000       6947.000       6947.000       6957.000    
    7007.000       7017.000       7017.000       7027.000       7027.000    
    7037.000       7037.000       7047.000       7047.000       7057.000    
    7057.000       7067.000       7067.000       7077.000       7077.000    
    7087.000       7087.000       7097.000       7097.000       7107.000    

    6907.000       6917.000       6917.000       6927.000       6927.000    
    6937.000       6937.000       6947.000       6947.000       6957.000    
    6957.000       6967.000       6967.000       6977.000       6977.000    
    6987.000       6987.000       6997.000       6997.000       7007.000    
    7057.000       7067.000       7067.000       7077.000       7077.000    
    7087.000       7087.000       7097.000       7097.000       7107.000    
    7107.000       7117.000       7117.000       7127.000       7127.000    
    7137.000       7137.000       7147.000       7147.000       7157.000    

    6907.000       6917.000       6917.000       6927.000       6927.000    
    6937.000       6937.000       6947.000       6947.000       6957.000    
    6957.000       6967.000       6967.000       6977.000       6977.000    
    6987.000       6987.000       6997.000       6997.000       7007.000    
    7057.000       7067.000       7067.000       7077.000       7077.000    
    7087.000       7087.000       7097.000       7097.000       7107.000    
    7107.000       7117.000       7117.000       7127.000       7127.000    
    7137.000       7137.000       7147.000       7147.000       7157.000    

    7007.000       7017.000       7017.000       7027.000       7027.000    
    7037.000       7037.000       7047.000       7047.000       7057.000    
    7057.000       7067.000       7067.000       7077.000       7077.000    
    7087.000       7087.000       7097.000       7097.000       7107.000    
    7157.000       7167.000       7167.000       7177.000       7177.000    
    7187.000       7187.000       7197.000       7197.000       7207.000    
    7207.000       7217.000       7217.000       7227.000       7227.000    
    7237.000       7237.000       7247.000       7247.000       7257.000    

    7007.000       7017.000       7017.000       7027.000       7027.000    
    7037.000       7037.000       7047.000       7047.000       7057.000    
    7057.000       7067.000       7067.000       7077.000       7077.000    
    7087.000       7087.000       7097.000       7097.000       7107.000    
    7157.000       7167.000       7167.000       7177.000       7177.000    
    7187.000       7187.000       7197.000       7197.000       7207.000    
    7207.000       7217.000       7217.000       7227.000       7227.000    
    7237.000       7237.000       7247.000       7247.000       7257.000    

    7107.000       7117.000       7117.000       7127.000       7127.000    
    7137.000       7137.000       7147.000       7147.000       7157.000    
    7157.000       7167.000       7167.000       7177.000       7177.000    
    7187.000       7187.000       7197.000       7197.000       7207.000    
    7257.000       7267.000       7267.000       7277.000       7277.000    
    7287.000       7287.000       7297.000       7297.000       7307.000    
    7307.000       7317.000       7317.000       7327.000       7327.000    
    7337.000       7337.000       7347.000       7347.000       7357.000    

    7107.000       7117.000       7117.000       7127.000       7127.000    
    7137.000       7137.000       7147.000       7147.000       7157.000    
    7157.000       7167.000       7167.000       7177.000       7177.000    
    7187.000       7187.000       7197.000       7197.000       7207.000    
    7257.000       7267.000       7267.000       7277.000       7277.000    
    7287.000       7287.000       7297.000       7297.000       7307.000    
    7307.000       7317.000       7317.000       7327.000       7327.000    
    7337.000       7337.000       7347.000       7347.000       7357.000    

    7207.000       7217.000       7217.000       7227.000       7227.000    
    7237.000       7237.000       7247.000       7247.000       7257.000    
    7257.000       7267.000       7267.000       7277.000       7277.000    
    7287.000       7287.000       7297.000       7297.000       7307.000    
    7357.000       7367.000       7367.000       7377.000       7377.000    
    7387.000       7387.000       7397.000       7397.000       7407.000    
    7407.000       7417.000       7417.000       7427.000       7427.000    
    7437.000       7437.000       7447.000       7447.000       7457.000    

    7207.000       7217.000       7217.000       7227.000       7227.000    
    7237.000       7237.000       7247.000       7247.000       7257.000    
    7257.000       7267.000       7267.000       7277.000       7277.000    
    7287.000       7287.000       7297.000       7297.000       7307.000    
    7357.000       7367.000       7367.000       7377.000       7377.000    
    7387.000       7387.000       7397.000       7397.000       7407.000    
    7407.000       7417.000       7417.000       7427.000       7427.000    
    7437.000       7437.000       7447.000       7447.000       7457.000    

    7257.000       7267.000       7267.000       7277.000       7277.000    