NOECHO
PINCH
/
MAPUNITS
 'METRES  '
/
MAPAXES
   0.58700000E+06   0.59464000E+07   0.58700000E+06   0.59465000E+07
   0.58710000E+06   0.59465000E+07
/
GRIDUNIT
 'METRES  ' '        '
/
SPECGRID
20 20 4 1 F
/
COORD
   0.60814319E+03  -0.12195820E+04   0.22497217E+04   0.59895313E+03
  -0.12417069E+04   0.24990918E+04
   0.65048248E+03  -0.12046404E+04   0.22456648E+04   0.64349963E+03
  -0.12271340E+04   0.24927664E+04
   0.69211285E+03  -0.11901328E+04   0.22466001E+04   0.68799969E+03
  -0.12132166E+04   0.24919016E+04
   0.73225159E+03  -0.11736407E+04   0.22484019E+04   0.73173944E+03
  -0.11976670E+04   0.24935242E+04
   0.78713696E+03  -0.11509646E+04   0.22498828E+04   0.79193066E+03
  -0.11765302E+04   0.24963970E+04
   0.84224365E+03  -0.11340254E+04   0.22918184E+04   0.85197278E+03
  -0.11596289E+04   0.25263911E+04
   0.89727356E+03  -0.11168514E+04   0.23285774E+04   0.91063074E+03
  -0.11418252E+04   0.25514387E+04
   0.95013660E+03  -0.10953881E+04   0.23193721E+04   0.96750781E+03
  -0.11204846E+04   0.25449980E+04
   0.10027910E+04  -0.10719368E+04   0.23171045E+04   0.10237505E+04
  -0.10959089E+04   0.25436694E+04
   0.10566782E+04  -0.10468763E+04   0.23195608E+04   0.10816050E+04
  -0.10682747E+04   0.25447197E+04
   0.11128472E+04  -0.10211198E+04   0.23269941E+04   0.11429219E+04
  -0.10391960E+04   0.25531370E+04
   0.11704058E+04  -0.99389453E+03   0.23323394E+04   0.12064832E+04
  -0.10076353E+04   0.25601470E+04
   0.12235999E+04  -0.96401526E+03   0.23081865E+04   0.12673069E+04
  -0.97233795E+03   0.25455122E+04
   0.12754551E+04  -0.93060645E+03   0.22939460E+04   0.13242759E+04
  -0.93160376E+03   0.25304482E+04
   0.13266931E+04  -0.89368683E+03   0.22908767E+04   0.13787295E+04
  -0.88583582E+03   0.25280640E+04
   0.13804053E+04  -0.85759241E+03   0.22986895E+04   0.14326743E+04
  -0.83825385E+03   0.25389534E+04
   0.14342101E+04  -0.81920581E+03   0.23152485E+04   0.14825449E+04
  -0.78572961E+03   0.25608557E+04
   0.14872903E+04  -0.77540186E+03   0.23394314E+04   0.15247345E+04
  -0.73632129E+03   0.25631533E+04
   0.15221146E+04  -0.73788934E+03   0.23431157E+04   0.15607844E+04
  -0.71327100E+03   0.25656987E+04
   0.15565603E+04  -0.70177448E+03   0.23451169E+04   0.15957377E+04
  -0.69134656E+03   0.25646216E+04
   0.15901980E+04  -0.66775592E+03   0.23438359E+04   0.16296797E+04
  -0.66812598E+03   0.25636868E+04
   0.57570660E+03  -0.12013038E+04   0.22525776E+04   0.56519104E+03
  -0.12230710E+04   0.25026128E+04
   0.61928442E+03  -0.11842529E+04   0.22489004E+04   0.61083765E+03
  -0.12064602E+04   0.24971885E+04
   0.66220892E+03  -0.11671316E+04   0.22455542E+04   0.65662555E+03
  -0.11899177E+04   0.24914868E+04
   0.70357080E+03  -0.11487867E+04   0.22473433E+04   0.70183997E+03
  -0.11725247E+04   0.24923694E+04
   0.75701147E+03  -0.11242240E+04   0.22493691E+04   0.76140656E+03
  -0.11495496E+04   0.24944146E+04
   0.80996320E+03  -0.11037571E+04   0.22900181E+04   0.82110229E+03
  -0.11304323E+04   0.25312415E+04
   0.86194727E+03  -0.10834552E+04   0.23360518E+04   0.87671118E+03
  -0.11092537E+04   0.25591565E+04
   0.90867267E+03  -0.10576705E+04   0.23257231E+04   0.92555981E+03
  -0.10835662E+04   0.25492725E+04
   0.95717480E+03  -0.10332140E+04   0.23187373E+04   0.97628772E+03
  -0.10583003E+04   0.25445859E+04
   0.10070887E+04  -0.10056429E+04   0.23171855E+04   0.10298029E+04
  -0.10285660E+04   0.25436345E+04
   0.10587158E+04  -0.97541724E+03   0.23001086E+04   0.10887036E+04
  -0.99615100E+03   0.25422837E+04
   0.11129982E+04  -0.94760553E+03   0.22801230E+04   0.11496112E+04
  -0.96311505E+03   0.25176401E+04
   0.11677126E+04  -0.91985052E+03   0.22674412E+04   0.12109147E+04
  -0.92946832E+03   0.24982520E+04
   0.12200828E+04  -0.88809485E+03   0.22619963E+04   0.12703357E+04
  -0.89122345E+03   0.24932107E+04
   0.12709811E+04  -0.85166785E+03   0.22642251E+04   0.13262791E+04
  -0.84726599E+03   0.24952046E+04
   0.13244761E+04  -0.81653149E+03   0.22701470E+04   0.13834415E+04
  -0.80435974E+03   0.25062651E+04
   0.13781312E+04  -0.77758136E+03   0.22789504E+04   0.14392996E+04
  -0.75885596E+03   0.25270962E+04
   0.14275320E+04  -0.73559662E+03   0.22721216E+04   0.14943402E+04
  -0.71430103E+03   0.25612866E+04
   0.14782605E+04  -0.69602478E+03   0.23276089E+04   0.15288088E+04
  -0.68738470E+03   0.25644229E+04
   0.15183118E+04  -0.65918311E+03   0.23435481E+04   0.15603722E+04
  -0.66205597E+03   0.25634458E+04
   0.15560612E+04  -0.62563989E+03   0.23423711E+04   0.15931165E+04
  -0.63898022E+03   0.25624878E+04
   0.53977942E+03  -0.11894971E+04   0.23307012E+04   0.52948792E+03
  -0.12074690E+04   0.25426970E+04
   0.58696161E+03  -0.11668981E+04   0.22874673E+04   0.57709381E+03
  -0.11875364E+04   0.25239683E+04
   0.63280542E+03  -0.11442432E+04   0.22474956E+04   0.62506366E+03
  -0.11667246E+04   0.24955237E+04
   0.67562604E+03  -0.11236630E+04   0.22460493E+04   0.67191602E+03
  -0.11469998E+04   0.24912456E+04
   0.72796936E+03  -0.10967188E+04   0.22481487E+04   0.73121271E+03
  -0.11218428E+04   0.24935410E+04
   0.77784717E+03  -0.10692814E+04   0.22643027E+04   0.79032886E+03
  -0.10966411E+04   0.25091206E+04
   0.82641528E+03  -0.10433752E+04   0.23117100E+04   0.84503656E+03
  -0.10716757E+04   0.25467842E+04
   0.86861536E+03  -0.10179866E+04   0.23346816E+04   0.88378809E+03
  -0.10450532E+04   0.25576135E+04
   0.91272156E+03  -0.99223773E+03   0.23174937E+04   0.92974591E+03
  -0.10189023E+04   0.25486367E+04
   0.95534766E+03  -0.95863959E+03   0.22721697E+04   0.97773523E+03
  -0.98737891E+03   0.25323467E+04
   0.10036665E+04  -0.92366046E+03   0.22412168E+04   0.10309236E+04
  -0.94657544E+03   0.24874082E+04
   0.10600981E+04  -0.89616620E+03   0.22350337E+04   0.10946172E+04
  -0.91212109E+03   0.24690872E+04
   0.11162754E+04  -0.87027698E+03   0.22288828E+04   0.11617734E+04
  -0.88210388E+03   0.24663115E+04
   0.11684496E+04  -0.83969141E+03   0.22313208E+04   0.12228823E+04
  -0.84648370E+03   0.24687813E+04
   0.12178660E+04  -0.80397778E+03   0.22377739E+04   0.12817095E+04
  -0.80243481E+03   0.24803057E+04
   0.12741575E+04  -0.76792493E+03   0.22528777E+04   0.13416274E+04
  -0.76218890E+03   0.24911514E+04
   0.13307998E+04  -0.72634424E+03   0.22685513E+04   0.13998533E+04
  -0.72054565E+03   0.25011030E+04
   0.13803931E+04  -0.68248547E+03   0.22601929E+04   0.14587975E+04
  -0.68061456E+03   0.25260779E+04
   0.14279480E+04  -0.64773706E+03   0.22784180E+04   0.15006917E+04
  -0.65518823E+03   0.25631533E+04
   0.14804086E+04  -0.61352173E+03   0.23348979E+04   0.15266111E+04
  -0.63058423E+03   0.25621389E+04
   0.15217733E+04  -0.58175562E+03   0.23390938E+04   0.15549001E+04
  -0.61135364E+03   0.25612407E+04
   0.50267108E+03  -0.11776075E+04   0.24116616E+04   0.49237643E+03
  -0.11926536E+04   0.25959792E+04
   0.55421124E+03  -0.11495157E+04   0.23291738E+04   0.54283838E+03
  -0.11680505E+04   0.25491450E+04
   0.60421912E+03  -0.11211139E+04   0.22500825E+04   0.59333411E+03
  -0.11430864E+04   0.25002219E+04
   0.64884802E+03  -0.10982332E+04   0.22458240E+04   0.64185883E+03
  -0.11211345E+04   0.24929775E+04
   0.70015857E+03  -0.10691461E+04   0.22471860E+04   0.70049658E+03
  -0.10937245E+04   0.24923694E+04
   0.74728589E+03  -0.10362356E+04   0.22491094E+04   0.75900098E+03
  -0.10634307E+04   0.24941252E+04
   0.78944202E+03  -0.99896368E+03   0.22644805E+04   0.81413647E+03
  -0.10301497E+04   0.25157942E+04
   0.82275177E+03  -0.96183484E+03   0.22137422E+04   0.83517371E+03
  -0.99658521E+03   0.24900273E+04
   0.86074353E+03  -0.93370447E+03   0.21743879E+04   0.87658826E+03
  -0.96121094E+03   0.24190078E+04
   0.90037646E+03  -0.90055896E+03   0.21419785E+04   0.91754907E+03
  -0.92978857E+03   0.23838547E+04
   0.94675769E+03  -0.86492822E+03   0.21305999E+04   0.96848108E+03
  -0.88734241E+03   0.23544658E+04
   0.10007577E+04  -0.83792352E+03   0.21321458E+04   0.10306897E+04
  -0.85175977E+03   0.23489639E+04
   0.10567471E+04  -0.81682092E+03   0.21405718E+04   0.11011685E+04
  -0.82946350E+03   0.23658757E+04
   0.11067458E+04  -0.78599072E+03   0.21538005E+04   0.11567335E+04
  -0.79703455E+03   0.23680317E+04
   0.11543752E+04  -0.75654102E+03   0.21777180E+04   0.12124553E+04
  -0.75602832E+03   0.23822217E+04
   0.12135516E+04  -0.71908618E+03   0.21997529E+04   0.12783436E+04
  -0.71878418E+03   0.24133101E+04
   0.12695836E+04  -0.67603180E+03   0.22144341E+04   0.13437596E+04
  -0.67911163E+03   0.24387830E+04
   0.13642952E+04  -0.63450671E+03   0.23380129E+04   0.14636438E+04
  -0.64588477E+03   0.26154561E+04
   0.14133838E+04  -0.60679932E+03   0.23617627E+04   0.14882782E+04
  -0.62476343E+03   0.26207661E+04
   0.14540042E+04  -0.57430859E+03   0.23749924E+04   0.15058235E+04
  -0.60278632E+03   0.26153904E+04
   0.14925754E+04  -0.54203882E+03   0.23610105E+04   0.15261578E+04
  -0.59239771E+03   0.26160173E+04
   0.46072836E+03  -0.11449069E+04   0.24113799E+04   0.44893079E+03
  -0.11589390E+04   0.25956960E+04
   0.51102591E+03  -0.11182705E+04   0.23704756E+04   0.49818964E+03
  -0.11334144E+04   0.25624187E+04
   0.56384186E+03  -0.10879983E+04   0.22902544E+04   0.54820978E+03
  -0.11075193E+04   0.25261028E+04
   0.61223047E+03  -0.10601897E+04   0.22494309E+04   0.59824896E+03
  -0.10821558E+04   0.24992388E+04
   0.66351031E+03  -0.10305522E+04   0.22455542E+04   0.65676538E+03
  -0.10540229E+04   0.24914868E+04
   0.70996887E+03  -0.99874518E+03   0.22471860E+04   0.71353241E+03
  -0.10244648E+04   0.24926147E+04
   0.74879053E+03  -0.95790112E+03   0.22040569E+04   0.76191028E+03
  -0.98926831E+03   0.24809939E+04
   0.78405560E+03  -0.91775525E+03   0.21539905E+04   0.79448596E+03
  -0.94537720E+03   0.23949512E+04
   0.82467914E+03  -0.88874512E+03   0.21314387E+04   0.83712708E+03
  -0.91386707E+03   0.23610830E+04
   0.86557117E+03  -0.85595178E+03   0.21239722E+04   0.87998834E+03
  -0.87773340E+03   0.23295313E+04
   0.91130115E+03  -0.82307532E+03   0.21176594E+04   0.93236536E+03
  -0.84266272E+03   0.23336650E+04
   0.96409583E+03  -0.79931952E+03   0.21192273E+04   0.99780963E+03
  -0.81633105E+03   0.23656650E+04
   0.10164586E+04  -0.77526740E+03   0.21230767E+04   0.10570974E+04
  -0.78772876E+03   0.23434619E+04
   0.10650588E+04  -0.74536243E+03   0.21310127E+04   0.11162620E+04
  -0.75540308E+03   0.23567451E+04
   0.11122251E+04  -0.71113458E+03   0.21461875E+04   0.11711554E+04
  -0.71594910E+03   0.23653367E+04
   0.11732803E+04  -0.67660913E+03   0.21842561E+04   0.12352958E+04
  -0.68103308E+03   0.23914121E+04
   0.12300991E+04  -0.63574585E+03   0.22021821E+04   0.12988477E+04
  -0.64356580E+03   0.24137437E+04
   0.13228423E+04  -0.59989661E+03   0.23222910E+04   0.14125737E+04
  -0.61651025E+03   0.25930537E+04
   0.13752947E+04  -0.57013196E+03   0.23478716E+04   0.14558651E+04
  -0.59444531E+03   0.26243044E+04
   0.14209270E+04  -0.53786890E+03   0.23669832E+04   0.14794390E+04
  -0.56883911E+03   0.26161704E+04
   0.14673601E+04  -0.51187714E+03   0.23820881E+04   0.15054482E+04
  -0.54897498E+03   0.25994495E+04
   0.41953644E+03  -0.11112594E+04   0.24100720E+04   0.40717047E+03
  -0.11239316E+04   0.25956794E+04
   0.46812842E+03  -0.10851226E+04   0.24109380E+04   0.45311768E+03
  -0.10982666E+04   0.25956118E+04
   0.52062677E+03  -0.10554607E+04   0.23705510E+04   0.50170392E+03
  -0.10701633E+04   0.25656394E+04
   0.57753998E+03  -0.10221010E+04   0.22887295E+04   0.55341364E+03
  -0.10413304E+04   0.25259978E+04
   0.63203857E+03  -0.98980341E+03   0.22400591E+04   0.61394873E+03
  -0.10124354E+04   0.24968760E+04
   0.67791644E+03  -0.95591547E+03   0.22044543E+04   0.67068640E+03
  -0.98067029E+03   0.24628843E+04
   0.71704309E+03  -0.91564069E+03   0.21541648E+04   0.71836115E+03
  -0.93938391E+03   0.23881973E+04
   0.75261896E+03  -0.87616602E+03   0.21294761E+04   0.75841827E+03
  -0.89808026E+03   0.23425334E+04
   0.79405872E+03  -0.84498541E+03   0.21189158E+04   0.80356335E+03
  -0.86591382E+03   0.23283474E+04
   0.83472302E+03  -0.81062671E+03   0.21129189E+04   0.84987988E+03
  -0.83145447E+03   0.23371387E+04
   0.88015308E+03  -0.77963513E+03   0.21135996E+04   0.90078375E+03
  -0.79704993E+03   0.23276089E+04
   0.93156854E+03  -0.75722882E+03   0.21137607E+04   0.96120459E+03
  -0.77234113E+03   0.23378372E+04
   0.98218347E+03  -0.73236841E+03   0.21150820E+04   0.10205718E+04
  -0.74447949E+03   0.23377319E+04
   0.10300564E+04  -0.70186511E+03   0.21184897E+04   0.10776255E+04
  -0.71140039E+03   0.23417813E+04
   0.10773628E+04  -0.66553699E+03   0.21294761E+04   0.11343407E+04
  -0.67341479E+03   0.23564307E+04
   0.11348268E+04  -0.63274542E+03   0.21597405E+04   0.11953334E+04
  -0.64054321E+03   0.23728398E+04
   0.11958093E+04  -0.59567407E+03   0.21933755E+04   0.12595068E+04
  -0.60618567E+03   0.24004771E+04
   0.12852219E+04  -0.56394592E+03   0.23097158E+04   0.13617896E+04
  -0.58162854E+03   0.25561091E+04
   0.13387190E+04  -0.53462354E+03   0.23361418E+04   0.14136567E+04
  -0.55807263E+03   0.25969395E+04
   0.13865852E+04  -0.50328418E+03   0.23563059E+04   0.14539385E+04
  -0.53276599E+03   0.26239565E+04
   0.14363027E+04  -0.47889584E+03   0.23756140E+04   0.14934816E+04
  -0.51375403E+03   0.26406204E+04
   0.37889502E+03  -0.10768091E+04   0.24137690E+04   0.36823749E+03
  -0.10875448E+04   0.25979541E+04
   0.43027762E+03  -0.10473431E+04   0.24098125E+04   0.41439322E+03
  -0.10588123E+04   0.25955234E+04
   0.48115604E+03  -0.10173270E+04   0.24113799E+04   0.45870111E+03
  -0.10295254E+04   0.25956626E+04
   0.54811407E+03  -0.97873120E+03   0.23091421E+04   0.51230920E+03
  -0.99523376E+03   0.25369587E+04
   0.60962061E+03  -0.94371881E+03   0.21962397E+04   0.58249915E+03
  -0.96335266E+03   0.24418450E+04
   0.65323669E+03  -0.90980151E+03   0.21564712E+04   0.63893646E+03
  -0.92979602E+03   0.23851133E+04
   0.69107037E+03  -0.87145459E+03   0.21288357E+04   0.68596686E+03
  -0.89113550E+03   0.23425334E+04
   0.72621741E+03  -0.83225922E+03   0.21165469E+04   0.72789197E+03
  -0.85242871E+03   0.23335459E+04
   0.76715356E+03  -0.79996075E+03   0.21134868E+04   0.77446289E+03
  -0.81905957E+03   0.23259438E+04
   0.80684436E+03  -0.76422894E+03   0.21000664E+04   0.81446521E+03
  -0.77452570E+03   0.22242791E+04
   0.84969867E+03  -0.73262634E+03   0.20840618E+04   0.85605341E+03
  -0.73773975E+03   0.21537654E+04
   0.90037384E+03  -0.71158698E+03   0.20943584E+04   0.90953882E+03
  -0.71618091E+03   0.21679419E+04
   0.95194299E+03  -0.68778387E+03   0.21100154E+04   0.97660754E+03
  -0.69565149E+03   0.22636956E+04
   0.10001464E+04  -0.65735339E+03   0.21151917E+04   0.10435052E+04
  -0.66658435E+03   0.23347256E+04
   0.10468691E+04  -0.62127722E+03   0.21218103E+04   0.10997769E+04
  -0.62995758E+03   0.23487710E+04
   0.11005308E+04  -0.58957190E+03   0.21398518E+04   0.11591688E+04
  -0.59876508E+03   0.23607842E+04
   0.11623743E+04  -0.55552521E+03   0.21810127E+04   0.12220518E+04
  -0.56672650E+03   0.23862832E+04
   0.12451628E+04  -0.52587231E+03   0.22844600E+04   0.13227859E+04
  -0.54497504E+03   0.25407354E+04
   0.13037722E+04  -0.49941492E+03   0.23274741E+04   0.13727195E+04
  -0.51890204E+03   0.25698018E+04
   0.13517512E+04  -0.46983313E+03   0.23467793E+04   0.14200505E+04
  -0.49279529E+03   0.26077773E+04
   0.14019855E+04  -0.44670038E+03   0.23656650E+04   0.14695116E+04
  -0.47367728E+03   0.26464395E+04
   0.33926575E+03  -0.10406622E+04   0.24175745E+04   0.33321576E+03
  -0.10489708E+04   0.25991130E+04
   0.39281052E+03  -0.10094463E+04   0.24122183E+04   0.37911484E+03
  -0.10190513E+04   0.25974487E+04
   0.45022281E+03  -0.97657806E+03   0.23776621E+04   0.42487366E+03
  -0.98871289E+03   0.25896775E+04
   0.53209473E+03  -0.93419153E+03   0.21905493E+04   0.50125726E+03
  -0.94680127E+03   0.23970552E+04
   0.58383447E+03  -0.90102673E+03   0.21617456E+04   0.55666565E+03
  -0.91687665E+03   0.23777258E+04
   0.62726038E+03  -0.86541437E+03   0.21316594E+04   0.60825305E+03
  -0.88372852E+03   0.23549312E+04
   0.66407220E+03  -0.82753625E+03   0.21208279E+04   0.65449524E+03
  -0.84573468E+03   0.23328230E+04
   0.69923071E+03  -0.78862976E+03   0.21141233E+04   0.69735510E+03
  -0.80537585E+03   0.23097820E+04
   0.73935657E+03  -0.75458490E+03   0.20975649E+04   0.74157751E+03
  -0.76280310E+03   0.21979922E+04
   0.77616925E+03  -0.71582172E+03   0.20430093E+04   0.77616925E+03
  -0.71582172E+03   0.20430093E+04
   0.81566956E+03  -0.68414465E+03   0.20117748E+04   0.81566956E+03
  -0.68414465E+03   0.20117748E+04
   0.86224878E+03  -0.66328809E+03   0.20136300E+04   0.86224878E+03
  -0.66328809E+03   0.20136300E+04
   0.91435834E+03  -0.64169257E+03   0.20552258E+04   0.91435834E+03
  -0.64169257E+03   0.20552258E+04
   0.97039233E+03  -0.61443463E+03   0.21141675E+04   0.10023151E+04
  -0.62133112E+03   0.22897446E+04
   0.10163987E+04  -0.57963147E+03   0.21167368E+04   0.10636373E+04
  -0.58745105E+03   0.23360210E+04
   0.10689487E+04  -0.54953644E+03   0.21314387E+04   0.11242950E+04
  -0.55794458E+03   0.23554663E+04
   0.11278711E+04  -0.51717554E+03   0.21638035E+04   0.11856018E+04
  -0.52683960E+03   0.23749543E+04
   0.12053054E+04  -0.48654059E+03   0.22508574E+04   0.12840488E+04
  -0.50209967E+03   0.25255596E+04
   0.12655319E+04  -0.46330109E+03   0.23064810E+04   0.13344141E+04
  -0.47819592E+03   0.25539475E+04
   0.13166237E+04  -0.43651495E+03   0.23383179E+04   0.13823180E+04
  -0.45210907E+03   0.25870640E+04
   0.13669810E+04  -0.41441153E+03   0.23573350E+04   0.14345697E+04
  -0.43204572E+03   0.26269944E+04
   0.30556216E+03  -0.99838635E+03   0.24198640E+04   0.30760376E+03
  -0.10037536E+04   0.25995195E+04
   0.36004440E+03  -0.96676056E+03   0.23813098E+04   0.35016479E+03
  -0.97569568E+03   0.25884504E+04
   0.42027545E+03  -0.93465405E+03   0.23340481E+04   0.39551929E+03
  -0.94732019E+03   0.25668098E+04
   0.50422052E+03  -0.89420227E+03   0.21544883E+04   0.47718390E+03
  -0.90556183E+03   0.23386470E+04
   0.55233502E+03  -0.85939661E+03   0.21490427E+04   0.52415656E+03
  -0.87523260E+03   0.23634724E+04
   0.59621869E+03  -0.82232642E+03   0.21272710E+04   0.57504095E+03
  -0.83983496E+03   0.23441411E+04
   0.63404480E+03  -0.78370300E+03   0.21164824E+04   0.62102283E+03
  -0.80173206E+03   0.23346816E+04
   0.66988287E+03  -0.74509314E+03   0.21105049E+04   0.66646735E+03
  -0.75691309E+03   0.22567979E+04
   0.70992413E+03  -0.70962207E+03   0.20747080E+04   0.71002039E+03
  -0.71033716E+03   0.20841140E+04
   0.74668848E+03  -0.67176398E+03   0.20228632E+04   0.74668848E+03
  -0.67176398E+03   0.20228632E+04
   0.78675714E+03  -0.64164996E+03   0.20054253E+04   0.78675714E+03
  -0.64164996E+03   0.20054253E+04
   0.83193048E+03  -0.62032776E+03   0.19987998E+04   0.83193048E+03
  -0.62032776E+03   0.19987998E+04
   0.88118817E+03  -0.59835571E+03   0.20271245E+04   0.88118817E+03
  -0.59835571E+03   0.20271245E+04
   0.93970282E+03  -0.57276550E+03   0.21107913E+04   0.95726306E+03
  -0.57635870E+03   0.22165747E+04
   0.98638300E+03  -0.53971301E+03   0.21158955E+04   0.10299719E+04
  -0.54603546E+03   0.23363701E+04
   0.10380436E+04  -0.51140570E+03   0.21271804E+04   0.10895647E+04
  -0.51740393E+03   0.23524341E+04
   0.10940088E+04  -0.48118369E+03   0.21506670E+04   0.11479802E+04
  -0.48718243E+03   0.23606255E+04
   0.11692883E+04  -0.45200912E+03   0.22376069E+04   0.12442673E+04
  -0.46120496E+03   0.25090149E+04
   0.12269607E+04  -0.42734897E+03   0.22827324E+04   0.12969995E+04
  -0.43629553E+03   0.25423679E+04
   0.12832067E+04  -0.40139258E+03   0.23320657E+04   0.13454988E+04
  -0.41003769E+03   0.25724023E+04
   0.13342653E+04  -0.37951971E+03   0.23516921E+04   0.13990259E+04
  -0.38935263E+03   0.26111233E+04
   0.27040329E+03  -0.95366455E+03   0.23821956E+04   0.28549612E+03
  -0.95592102E+03   0.25829360E+04
   0.32735687E+03  -0.92162640E+03   0.23438755E+04   0.32359204E+03
  -0.93021863E+03   0.25693198E+04
   0.38902039E+03  -0.88859766E+03   0.23108188E+04   0.36776471E+03
  -0.90231030E+03   0.25411714E+04
   0.46813272E+03  -0.84560870E+03   0.21601094E+04   0.44255225E+03
  -0.85963434E+03   0.23447444E+04
   0.52121332E+03  -0.81147192E+03   0.21455088E+04   0.49176855E+03
  -0.82950085E+03   0.23666926E+04
   0.56640179E+03  -0.77526929E+03   0.21260444E+04   0.54382397E+03
  -0.79328406E+03   0.23423711E+04
   0.60495673E+03  -0.73735150E+03   0.21160176E+04   0.59008801E+03
  -0.75509344E+03   0.23320391E+04
   0.64148529E+03  -0.69978363E+03   0.21090012E+04   0.63694550E+03
  -0.71039160E+03   0.22444346E+04
   0.68178656E+03  -0.66563147E+03   0.20795818E+04   0.68178418E+03
  -0.66671637E+03   0.20946111E+04
   0.71922241E+03  -0.62918719E+03   0.20318109E+04   0.71922241E+03
  -0.62918719E+03   0.20318109E+04
   0.75929309E+03  -0.59996130E+03   0.20120161E+04   0.75929309E+03
  -0.59996130E+03   0.20120161E+04
   0.80469299E+03  -0.57938593E+03   0.20115209E+04   0.80469299E+03
  -0.57938593E+03   0.20115209E+04
   0.85295044E+03  -0.55778833E+03   0.20352615E+04   0.85295044E+03
  -0.55778833E+03   0.20352615E+04
   0.90861224E+03  -0.53271545E+03   0.21085295E+04   0.92112366E+03
  -0.53494293E+03   0.21918979E+04
   0.95540454E+03  -0.50172571E+03   0.21159512E+04   0.99426825E+03
  -0.50584732E+03   0.23321938E+04
   0.10061569E+04  -0.47563470E+03   0.21256814E+04   0.10525432E+04
  -0.47833572E+03   0.23470635E+04
   0.10597329E+04  -0.44815228E+03   0.21432266E+04   0.11110903E+04
  -0.44945303E+03   0.23586426E+04
   0.11351346E+04  -0.41902420E+03   0.22378950E+04   0.12026813E+04
  -0.41997241E+03   0.24983022E+04
   0.11902681E+04  -0.39342859E+03   0.22720183E+04   0.12568774E+04
  -0.39486594E+03   0.25322810E+04
   0.12489758E+04  -0.36632477E+03   0.23268271E+04   0.13072250E+04
  -0.36856671E+03   0.25619148E+04
   0.13016752E+04  -0.34374445E+03   0.23472673E+04   0.13620531E+04
  -0.34692102E+03   0.25980752E+04
   0.22438046E+03  -0.91015808E+03   0.22962651E+04   0.25339787E+03
  -0.90988318E+03   0.25136929E+04
   0.29423926E+03  -0.87628448E+03   0.23302251E+04   0.29450534E+03
  -0.88522614E+03   0.25453992E+04
   0.35835919E+03  -0.83987842E+03   0.23031025E+04   0.33823767E+03
  -0.85566370E+03   0.25314375E+04
   0.43956293E+03  -0.79246826E+03   0.21709031E+04   0.40935962E+03
  -0.81082037E+03   0.23762097E+04
   0.49166644E+03  -0.76002783E+03   0.21455405E+04   0.46032556E+03
  -0.78090222E+03   0.23759863E+04
   0.53622180E+03  -0.72611951E+03   0.21276543E+04   0.51291583E+03
  -0.74530164E+03   0.23451963E+04
   0.57525836E+03  -0.68981189E+03   0.21165469E+04   0.55944098E+03
  -0.70782721E+03   0.23310730E+04
   0.61225555E+03  -0.65436835E+03   0.21129189E+04   0.60599738E+03
  -0.66638647E+03   0.22671968E+04
   0.65274622E+03  -0.62239154E+03   0.20953870E+04   0.65210956E+03
  -0.62746613E+03   0.21678870E+04
   0.69114807E+03  -0.58803522E+03   0.20571804E+04   0.69114807E+03
  -0.58803522E+03   0.20571804E+04
   0.73160571E+03  -0.56000433E+03   0.20340698E+04   0.73160571E+03
  -0.56000433E+03   0.20340698E+04
   0.77694751E+03  -0.54023364E+03   0.20347949E+04   0.77694751E+03
  -0.54023364E+03   0.20347949E+04
   0.82443787E+03  -0.51939630E+03   0.20549836E+04   0.82443787E+03
  -0.51939630E+03   0.20549836E+04
   0.87687543E+03  -0.49498950E+03   0.21126318E+04   0.88989252E+03
  -0.49674957E+03   0.22096357E+04
   0.92263989E+03  -0.46595248E+03   0.21164170E+04   0.95692889E+03
  -0.46770135E+03   0.23288774E+04
   0.97241443E+03  -0.44183286E+03   0.21250640E+04   0.10130271E+04
  -0.44134927E+03   0.23404507E+04
   0.10237397E+04  -0.41739838E+03   0.21384683E+04   0.10711893E+04
  -0.41388568E+03   0.23582515E+04
   0.10978029E+04  -0.39016116E+03   0.22451094E+04   0.11571886E+04
  -0.38187201E+03   0.24926406E+04
   0.11529999E+04  -0.36104721E+03   0.22680703E+04   0.12134980E+04
  -0.35550583E+03   0.25241846E+04
   0.12133911E+04  -0.33166217E+03   0.23216924E+04   0.12670508E+04
  -0.32830954E+03   0.25542288E+04
   0.12689913E+04  -0.30758740E+03   0.23446196E+04   0.13242454E+04
  -0.30491022E+03   0.25883704E+04
   0.19763654E+03  -0.86721405E+03   0.22920884E+04   0.21575659E+03
  -0.87360437E+03   0.25109082E+04
   0.26354797E+03  -0.83165222E+03   0.23383779E+04   0.26128055E+03
  -0.84391223E+03   0.25472380E+04
   0.32749640E+03  -0.79117303E+03   0.23029751E+04   0.30689462E+03
  -0.80977692E+03   0.25304956E+04
   0.40880353E+03  -0.73990448E+03   0.21673049E+04   0.37698651E+03
  -0.76142896E+03   0.23881812E+04
   0.45905035E+03  -0.70948041E+03   0.21493884E+04   0.42892908E+03
  -0.73165112E+03   0.23750845E+04
   0.50321188E+03  -0.67767529E+03   0.21322212E+04   0.47967395E+03
  -0.69859479E+03   0.23539160E+04
   0.54261829E+03  -0.64342395E+03   0.21197153E+04   0.52652893E+03
  -0.66210388E+03   0.23326875E+04
   0.58021527E+03  -0.61036597E+03   0.21152261E+04   0.57167853E+03
  -0.62529395E+03   0.23037898E+04
   0.62056006E+03  -0.58118213E+03   0.21109021E+04   0.61880969E+03
  -0.58882080E+03   0.22213853E+04
   0.65993256E+03  -0.55072333E+03   0.21064250E+04   0.66065308E+03
  -0.55404895E+03   0.21637681E+04
   0.70204840E+03  -0.52485382E+03   0.20966238E+04   0.70236218E+03
  -0.52521448E+03   0.21044543E+04
   0.74700970E+03  -0.50520966E+03   0.20801772E+04   0.74700970E+03
  -0.50520966E+03   0.20801772E+04
   0.79574762E+03  -0.48564471E+03   0.21135156E+04   0.79840320E+03
  -0.48624457E+03   0.21420322E+04
   0.84147400E+03  -0.46160501E+03   0.21158672E+04   0.85627588E+03
  -0.46268768E+03   0.22406741E+04
   0.88646436E+03  -0.43474304E+03   0.21187080E+04   0.91598828E+03
  -0.43405182E+03   0.23249312E+04
   0.93514716E+03  -0.41217776E+03   0.21255259E+04   0.97018042E+03
  -0.40898035E+03   0.23360518E+04
   0.98556201E+03  -0.38847980E+03   0.21367803E+04   0.10270033E+04
  -0.38247424E+03   0.23577781E+04
   0.10575535E+04  -0.35975351E+03   0.22493691E+04   0.11072667E+04
  -0.35047510E+03   0.24923694E+04
   0.11137043E+04  -0.33047595E+03   0.22675698E+04   0.11659066E+04
  -0.32117148E+03   0.25169160E+04
   0.11760548E+04  -0.29890564E+03   0.23188569E+04   0.12243444E+04
  -0.29077789E+03   0.25486140E+04
   0.12352488E+04  -0.27201355E+03   0.23430425E+04   0.12855031E+04
  -0.26389096E+03   0.25826636E+04
   0.17492197E+03  -0.82212952E+03   0.22901045E+04   0.17959842E+03
  -0.83667432E+03   0.25116311E+04
   0.23845882E+03  -0.77940057E+03   0.22611211E+04   0.23016740E+03
  -0.79859003E+03   0.24909531E+04
   0.29804315E+03  -0.74256274E+03   0.23068147E+04   0.27671707E+03
  -0.76483600E+03   0.25327190E+04
   0.37776398E+03  -0.68735754E+03   0.21684629E+04   0.34823230E+03
  -0.70971069E+03   0.23829717E+04
   0.42589282E+03  -0.65883051E+03   0.21543203E+04   0.39861084E+03
  -0.68221399E+03   0.23724517E+04
   0.46968997E+03  -0.62878711E+03   0.21399258E+04   0.44727338E+03
  -0.65137634E+03   0.23609739E+04
   0.50971207E+03  -0.59625403E+03   0.21266973E+04   0.49385678E+03
  -0.61583960E+03   0.23374946E+04
   0.54823132E+03  -0.56525555E+03   0.21190356E+04   0.53810138E+03
  -0.58230151E+03   0.23276865E+04
   0.58865106E+03  -0.53799176E+03   0.21155908E+04   0.58482916E+03
  -0.55012280E+03   0.22906387E+04
   0.62805896E+03  -0.50973517E+03   0.21153540E+04   0.62864392E+03
  -0.51707751E+03   0.22462561E+04
   0.67039337E+03  -0.48618463E+03   0.21157102E+04   0.67362787E+03
  -0.49071097E+03   0.22228550E+04
   0.71610376E+03  -0.46821683E+03   0.21164170E+04   0.72152332E+03
  -0.47094714E+03   0.22143225E+04
   0.76178552E+03  -0.44901807E+03   0.21167993E+04   0.77148895E+03
  -0.45063391E+03   0.22384133E+04
   0.80674597E+03  -0.42679034E+03   0.21191897E+04   0.82458875E+03
  -0.42656866E+03   0.22919448E+04
   0.85131445E+03  -0.40184335E+03   0.21238604E+04   0.87770410E+03
  -0.39860162E+03   0.23343101E+04
   0.89888770E+03  -0.38040976E+03   0.21283850E+04   0.92903168E+03
  -0.37460687E+03   0.23363147E+04
   0.94867236E+03  -0.35687000E+03   0.21389080E+04   0.98429871E+03
  -0.34888007E+03   0.23622891E+04
   0.10166553E+04  -0.32805383E+03   0.22519102E+04   0.10567184E+04
  -0.31935339E+03   0.24916621E+04
   0.10747341E+04  -0.29819296E+03   0.22676592E+04   0.11199362E+04
  -0.28576965E+03   0.25162156E+04
   0.11398052E+04  -0.26517963E+03   0.23218896E+04   0.11825859E+04
  -0.25268884E+03   0.25486140E+04
   0.12013535E+04  -0.23659390E+03   0.23436323E+04   0.12467443E+04
  -0.22331300E+03   0.25811333E+04
   0.15120297E+03  -0.77646912E+03   0.22902954E+04   0.14472693E+03
  -0.79848889E+03   0.25138525E+04
   0.21169275E+03  -0.73268921E+03   0.22658804E+04   0.19781473E+03
  -0.75784076E+03   0.24943655E+04
   0.27263574E+03  -0.68974786E+03   0.22536362E+04   0.25152211E+03
  -0.71714502E+03   0.24782505E+04
   0.34231516E+03  -0.63835291E+03   0.21705176E+04   0.31642004E+03
  -0.66674182E+03   0.23892947E+04
   0.39027762E+03  -0.60983252E+03   0.21567705E+04   0.36633133E+03
  -0.63636377E+03   0.23730588E+04
   0.43427527E+03  -0.58087042E+03   0.21489832E+04   0.41373010E+03
  -0.60511163E+03   0.23655698E+04
   0.47521301E+03  -0.54948004E+03   0.21374612E+04   0.45917368E+03
  -0.57088068E+03   0.23534131E+04
   0.51498102E+03  -0.52009668E+03   0.21285564E+04   0.50448419E+03
  -0.53751868E+03   0.23333345E+04
   0.55605542E+03  -0.49404742E+03   0.21229465E+04   0.55043433E+03
  -0.50857343E+03   0.23298301E+04
   0.59594312E+03  -0.46723898E+03   0.21211060E+04   0.59534100E+03
  -0.47825726E+03   0.23222910E+04
   0.63845520E+03  -0.44516220E+03   0.21207632E+04   0.64243939E+03
  -0.45258163E+03   0.23119429E+04
   0.68388214E+03  -0.42806351E+03   0.21215149E+04   0.69211853E+03
  -0.43222681E+03   0.23079124E+04
   0.72931787E+03  -0.40988446E+03   0.21229465E+04   0.74237891E+03
  -0.41096838E+03   0.23185857E+04