-- The following file was written from MATLAB using the MRST toolbox.

SPECGRID
3 3 1 1 F
/

COORD
     0.000000     0.000000     0.025000     0.000000     0.000000     0.275000
     0.300000     0.000000    -0.020970     0.333333     0.000000     0.230024
     0.633333     0.000000     0.017700     0.666667     0.000000     0.269976
     1.000000     0.000000    -0.025000     1.000000     0.000000     0.225000
     0.000000     0.333333    -0.007476     0.000000     0.333333     0.242524
     0.300000     0.333333     0.006898     0.333333     0.333333     0.262500
     0.633333     0.333333     0.025496     0.666667     0.333333     0.269976
     1.000000     0.333333    -0.057476     1.000000     0.333333     0.192524
     0.000000     0.666667    -0.007476     0.000000     0.666667     0.242524
     0.300000     0.666667     0.042563     0.333333     0.666667     0.294976
     0.633333     0.666667    -0.002372     0.666667     0.666667     0.237500
     1.000000     0.666667    -0.057476     1.000000     0.666667     0.192524
     0.000000     1.000000     0.025000     0.000000     1.000000     0.275000
     0.300000     1.000000     0.050359     0.333333     1.000000     0.294976
     0.633333     1.000000    -0.038036     0.666667     1.000000     0.205024
     1.000000     1.000000    -0.025000     1.000000     1.000000     0.225000
/

ZCORN
     0.025000    -0.020970    -0.020970     0.017700     0.017700    -0.025000    -0.007476     0.006898
     0.006898     0.025496     0.025496    -0.057476    -0.007476     0.006898     0.006898     0.025496
     0.025496    -0.057476    -0.007476     0.042563     0.042563    -0.002372    -0.002372    -0.057476
    -0.007476     0.042563     0.042563    -0.002372    -0.002372    -0.057476     0.025000     0.050359
     0.050359    -0.038036    -0.038036    -0.025000     0.275000     0.230024     0.230024     0.269976
     0.269976     0.225000     0.242524     0.262500     0.262500     0.269976     0.269976     0.192524
     0.242524     0.262500     0.262500     0.269976     0.269976     0.192524     0.242524     0.294976
     0.294976     0.237500     0.237500     0.192524     0.242524     0.294976     0.294976     0.237500
     0.237500     0.192524     0.275000     0.294976     0.294976     0.205024     0.205024     0.225000
/

ACTNUM
 1 1 1 1 1 1 1 1 1 /
