SPECGRID
1 1 1 1 F
/

COORD
     0.00    0.00    0.01          0.00    0.00     1.02
     1.00    0.00    0.03          1.00    0.00     1.04
     0.00    1.00    0.05          0.00    1.00     1.06
     1.00    1.00    0.07          1.00    1.00     1.08
/

ZCORN
     0.01     0.03     0.05     0.07
     1.02     1.04     1.06     1.08
/

ACTNUM
 1 1 1 1 1 1 1 1 1 /
