-- The following file was written from MATLAB using the MRST toolbox.

SPECGRID
10 10 3 1 F
/

COORD
     0.000000     0.000000     0.025000     0.000000     0.000000     0.275000
     0.090000     0.000000     0.003914     0.100000     0.000000     0.251734
     0.180000     0.000000    -0.012823     0.200000     0.000000     0.234561
     0.270000     0.000000    -0.020672     0.300000     0.000000     0.229030
     0.360000     0.000000    -0.018250     0.400000     0.000000     0.235683
     0.450000     0.000000    -0.007677     0.500000     0.000000     0.250000
     0.560000     0.000000     0.009120     0.600000     0.000000     0.264317
     0.670000     0.000000     0.020135     0.700000     0.000000     0.270970
     0.780000     0.000000     0.017573     0.800000     0.000000     0.265439
     0.890000     0.000000     0.000381     0.900000     0.000000     0.248266
     1.000000     0.000000    -0.025000     1.000000     0.000000     0.225000
     0.000000     0.100000     0.013412     0.000000     0.100000     0.263412
     0.090000     0.100000    -0.004887     0.100000     0.100000     0.243438
     0.180000     0.100000    -0.016096     0.200000     0.100000     0.232725
     0.270000     0.100000    -0.017398     0.300000     0.100000     0.234356
     0.360000     0.100000    -0.009449     0.400000     0.100000     0.246137
     0.450000     0.100000     0.003911     0.500000     0.100000     0.261588
     0.560000     0.100000     0.019219     0.600000     0.100000     0.272613
     0.670000     0.100000     0.024110     0.700000     0.100000     0.272805
     0.780000     0.100000     0.013599     0.800000     0.100000     0.260113
     0.890000     0.100000    -0.009717     0.900000     0.100000     0.237812
     1.000000     0.100000    -0.036588     1.000000     0.100000     0.213412
     0.000000     0.200000     0.002958     0.000000     0.200000     0.252958
     0.090000     0.200000    -0.010859     0.100000     0.200000     0.238112
     0.180000     0.200000    -0.015728     0.200000     0.200000     0.234561
     0.270000     0.200000    -0.010804     0.300000     0.200000     0.242653
     0.360000     0.200000     0.001319     0.400000     0.200000     0.257725
     0.450000     0.200000     0.015499     0.500000     0.200000     0.272042
     0.560000     0.200000     0.026978     0.600000     0.200000     0.277939
     0.670000     0.200000     0.024478     0.700000     0.200000     0.270970
     0.780000     0.200000     0.006408     0.800000     0.200000     0.251817
     0.890000     0.200000    -0.021167     0.900000     0.200000     0.226224
     1.000000     0.200000    -0.047042     1.000000     0.200000     0.202958
     0.000000     0.300000    -0.005338     0.000000     0.300000     0.244662
     0.090000     0.300000    -0.013419     0.100000     0.300000     0.236276
     0.180000     0.300000    -0.011753     0.200000     0.300000     0.239887
     0.270000     0.300000    -0.001533     0.300000     0.300000     0.253106
     0.360000     0.300000     0.012999     0.400000     0.300000     0.269314
     0.450000     0.300000     0.025953     0.500000     0.300000     0.280338
     0.560000     0.300000     0.031637     0.600000     0.300000     0.279775
     0.670000     0.300000     0.021205     0.700000     0.300000     0.265644
     0.780000     0.300000    -0.003296     0.800000     0.300000     0.241363
     0.890000     0.300000    -0.032848     0.900000     0.300000     0.214635
     1.000000     0.300000    -0.055338     1.000000     0.300000     0.194662
     0.000000     0.400000    -0.010665     0.000000     0.400000     0.239335
     0.090000     0.400000    -0.012315     0.100000     0.400000     0.238112
     0.180000     0.400000    -0.004562     0.200000     0.400000     0.248183
     0.270000     0.400000     0.009506     0.300000     0.400000     0.264695
     0.360000     0.400000     0.024449     0.400000     0.400000     0.279767
     0.450000     0.400000     0.034249     0.500000     0.400000     0.285665
     0.560000     0.400000     0.032741     0.600000     0.400000     0.277939
     0.670000     0.400000     0.014610     0.700000     0.400000     0.257347
     0.780000     0.400000    -0.014563     0.800000     0.400000     0.229775
     0.890000     0.400000    -0.043616     0.900000     0.400000     0.204182
     1.000000     0.400000    -0.060665     1.000000     0.400000     0.189335
     0.000000     0.500000    -0.012500     0.000000     0.500000     0.237500
     0.090000     0.500000    -0.007655     0.100000     0.500000     0.243438
     0.180000     0.500000     0.005141     0.200000     0.500000     0.258637
     0.270000     0.500000     0.021233     0.300000     0.500000     0.276283
     0.360000     0.500000     0.034548     0.400000     0.500000     0.288064
     0.450000     0.500000     0.039575     0.500000     0.500000     0.287500
     0.560000     0.500000     0.030182     0.600000     0.500000     0.272613
     0.670000     0.500000     0.005340     0.700000     0.500000     0.246894
     0.780000     0.500000    -0.026290     0.800000     0.500000     0.218186
     0.890000     0.500000    -0.052416     0.900000     0.500000     0.195885
     1.000000     0.500000    -0.062500     1.000000     0.500000     0.187500
     0.000000     0.600000    -0.010665     0.000000     0.600000     0.239335
     0.090000     0.600000     0.000104     0.100000     0.600000     0.251734
     0.180000     0.600000     0.016408     0.200000     0.600000     0.270225
     0.270000     0.600000     0.032500     0.300000     0.600000     0.286737
     0.360000     0.600000     0.042307     0.400000     0.600000     0.293390
     0.450000     0.600000     0.041411     0.500000     0.600000     0.285665
     0.560000     0.600000     0.024210     0.600000     0.600000     0.264317
     0.670000     0.600000    -0.005699     0.700000     0.600000     0.235305
     0.780000     0.600000    -0.037329     0.800000     0.600000     0.207733
     0.890000     0.600000    -0.058389     0.900000     0.600000     0.190559
     1.000000     0.600000    -0.060665     1.000000     0.600000     0.189335
     0.000000     0.700000    -0.005338     0.000000     0.700000     0.244662
     0.090000     0.700000     0.010203     0.100000     0.700000     0.262188
     0.180000     0.700000     0.028135     0.200000     0.700000     0.281814
     0.270000     0.700000     0.042203     0.300000     0.700000     0.295033
     0.360000     0.700000     0.046966     0.400000     0.700000     0.295225
     0.450000     0.700000     0.039575     0.500000     0.700000     0.280338
     0.560000     0.700000     0.015409     0.600000     0.700000     0.253863
     0.670000     0.700000    -0.017426     0.700000     0.700000     0.223717
     0.780000     0.700000    -0.046599     0.800000     0.700000     0.199436
     0.890000     0.700000    -0.060948     0.900000     0.700000     0.188724
     1.000000     0.700000    -0.055338     1.000000     0.700000     0.194662
     0.000000     0.800000     0.002958     0.000000     0.800000     0.252958
     0.090000     0.800000     0.021653     0.100000     0.800000     0.273776
     0.180000     0.800000     0.039174     0.200000     0.800000     0.292267
     0.270000     0.800000     0.049394     0.300000     0.800000     0.300359
     0.360000     0.800000     0.048070     0.400000     0.800000     0.293390
     0.450000     0.800000     0.034249     0.500000     0.800000     0.272042
     0.560000     0.800000     0.004641     0.600000     0.800000     0.242275
     0.670000     0.800000    -0.028693     0.700000     0.800000     0.213263
     0.780000     0.800000    -0.053194     0.800000     0.800000     0.194110
     0.890000     0.800000    -0.059844     0.900000     0.800000     0.190559
     1.000000     0.800000    -0.047042     1.000000     0.800000     0.202958
     0.000000     0.900000     0.013412     0.000000     0.900000     0.263412
     0.090000     0.900000     0.033333     0.100000     0.900000     0.285365
     0.180000     0.900000     0.048445     0.200000     0.900000     0.300564
     0.270000     0.900000     0.053369     0.300000     0.900000     0.302195
     0.360000     0.900000     0.045511     0.400000     0.900000     0.288064
     0.450000     0.900000     0.025953     0.500000     0.900000     0.261588
     0.560000     0.900000    -0.007039     0.600000     0.900000     0.230686
     0.670000     0.900000    -0.038397     0.700000     0.900000     0.204967
     0.780000     0.900000    -0.056467     0.800000     0.900000     0.192275
     0.890000     0.900000    -0.055184     0.900000     0.900000     0.195885
     1.000000     0.900000    -0.036588     1.000000     0.900000     0.213412
     0.000000     1.000000     0.025000     0.000000     1.000000     0.275000
     0.090000     1.000000     0.044101     0.100000     1.000000     0.295818
     0.180000     1.000000     0.055039     0.200000     1.000000     0.305890
     0.270000     1.000000     0.053737     0.300000     1.000000     0.300359
     0.360000     1.000000     0.039539     0.400000     1.000000     0.279767
     0.450000     1.000000     0.015499     0.500000     1.000000     0.250000
     0.560000     1.000000    -0.018489     0.600000     1.000000     0.220233
     0.670000     1.000000    -0.045588     0.700000     1.000000     0.199641
     0.780000     1.000000    -0.056099     0.800000     1.000000     0.194110
     0.890000     1.000000    -0.047425     0.900000     1.000000     0.204182
     1.000000     1.000000    -0.025000     1.000000     1.000000     0.225000
/

ZCORN
     0.025000     0.003914     0.003914    -0.012823    -0.012823    -0.020672    -0.020672    -0.018250
    -0.018250    -0.007677     0.142323     0.159120     0.159120     0.170135     0.170135     0.167573
     0.167573     0.150381     0.150381     0.125000     0.013412    -0.004887    -0.004887    -0.016096
    -0.016096    -0.017398    -0.017398    -0.009449    -0.009449     0.003911     0.153911     0.169219
     0.169219     0.174110     0.174110     0.163599     0.163599     0.140283     0.140283     0.113412
     0.013412    -0.004887    -0.004887    -0.016096    -0.016096    -0.017398    -0.017398    -0.009449
    -0.009449     0.003911     0.153911     0.169219     0.169219     0.174110     0.174110     0.163599
     0.163599     0.140283     0.140283     0.113412     0.002958    -0.010859    -0.010859    -0.015728
    -0.015728    -0.010804    -0.010804     0.001319     0.001319     0.015499     0.165499     0.176978
     0.176978     0.174478     0.174478     0.156408     0.156408     0.128833     0.128833     0.102958
     0.002958    -0.010859    -0.010859    -0.015728    -0.015728    -0.010804    -0.010804     0.001319
     0.001319     0.015499     0.165499     0.176978     0.176978     0.174478     0.174478     0.156408
     0.156408     0.128833     0.128833     0.102958    -0.005338    -0.013419    -0.013419    -0.011753
    -0.011753    -0.001533    -0.001533     0.012999     0.012999     0.025953     0.175953     0.181637
     0.181637     0.171205     0.171205     0.146704     0.146704     0.117152     0.117152     0.094662
    -0.005338    -0.013419    -0.013419    -0.011753    -0.011753    -0.001533    -0.001533     0.012999
     0.012999     0.025953     0.175953     0.181637     0.181637     0.171205     0.171205     0.146704
     0.146704     0.117152     0.117152     0.094662    -0.010665    -0.012315    -0.012315    -0.004562
    -0.004562     0.009506     0.009506     0.024449     0.024449     0.034249     0.184249     0.182741
     0.182741     0.164610     0.164610     0.135437     0.135437     0.106384     0.106384     0.089335
    -0.010665    -0.012315    -0.012315    -0.004562    -0.004562     0.009506     0.009506     0.024449
     0.024449     0.034249     0.184249     0.182741     0.182741     0.164610     0.164610     0.135437
     0.135437     0.106384     0.106384     0.089335    -0.012500    -0.007655    -0.007655     0.005141
     0.005141     0.021233     0.021233     0.034548     0.034548     0.039575     0.189575     0.180182
     0.180182     0.155340     0.155340     0.123710     0.123710     0.097584     0.097584     0.087500
    -0.012500    -0.007655    -0.007655     0.005141     0.005141     0.021233     0.021233     0.034548
     0.034548     0.039575     0.189575     0.180182     0.180182     0.155340     0.155340     0.123710
     0.123710     0.097584     0.097584     0.087500    -0.010665     0.000104     0.000104     0.016408
     0.016408     0.032500     0.032500     0.042307     0.042307     0.041411     0.191411     0.174210
     0.174210     0.144301     0.144301     0.112671     0.112671     0.091611     0.091611     0.089335
    -0.010665     0.000104     0.000104     0.016408     0.016408     0.032500     0.032500     0.042307
     0.042307     0.041411     0.191411     0.174210     0.174210     0.144301     0.144301     0.112671
     0.112671     0.091611     0.091611     0.089335    -0.005338     0.010203     0.010203     0.028135
     0.028135     0.042203     0.042203     0.046966     0.046966     0.039575     0.189575     0.165409
     0.165409     0.132574     0.132574     0.103401     0.103401     0.089052     0.089052     0.094662
    -0.005338     0.010203     0.010203     0.028135     0.028135     0.042203     0.042203     0.046966
     0.046966     0.039575     0.189575     0.165409     0.165409     0.132574     0.132574     0.103401
     0.103401     0.089052     0.089052     0.094662     0.002958     0.021653     0.021653     0.039174
     0.039174     0.049394     0.049394     0.048070     0.048070     0.034249     0.184249     0.154641
     0.154641     0.121307     0.121307     0.096806     0.096806     0.090156     0.090156     0.102958
     0.002958     0.021653     0.021653     0.039174     0.039174     0.049394     0.049394     0.048070
     0.048070     0.034249     0.184249     0.154641     0.154641     0.121307     0.121307     0.096806
     0.096806     0.090156     0.090156     0.102958     0.013412     0.033333     0.033333     0.048445
     0.048445     0.053369     0.053369     0.045511     0.045511     0.025953     0.175953     0.142961
     0.142961     0.111603     0.111603     0.093533     0.093533     0.094816     0.094816     0.113412
     0.013412     0.033333     0.033333     0.048445     0.048445     0.053369     0.053369     0.045511
     0.045511     0.025953     0.175953     0.142961     0.142961     0.111603     0.111603     0.093533
     0.093533     0.094816     0.094816     0.113412     0.025000     0.044101     0.044101     0.055039
     0.055039     0.053737     0.053737     0.039539     0.039539     0.015499     0.165499     0.131511
     0.131511     0.104412     0.104412     0.093901     0.093901     0.102575     0.102575     0.125000
     0.108333     0.086514     0.086514     0.069586     0.069586     0.062433     0.062433     0.066228
     0.066228     0.078150     0.228150     0.244298     0.244298     0.253869     0.253869     0.250250
     0.250250     0.233017     0.233017     0.208333     0.096745     0.077878     0.077878     0.066788
     0.066788     0.066407     0.066407     0.075648     0.075648     0.089866     0.239866     0.253862
     0.253862     0.257142     0.257142     0.245817     0.245817     0.222795     0.222795     0.196745
     0.096745     0.077878     0.077878     0.066788     0.066788     0.066407     0.066407     0.075648
     0.075648     0.089866     0.239866     0.253862     0.253862     0.257142     0.257142     0.245817
     0.245817     0.222795     0.222795     0.196745     0.086291     0.072118     0.072118     0.067647
     0.067647     0.073598     0.073598     0.086767     0.086767     0.101199     0.251199     0.260857
     0.260857     0.256773     0.256773     0.238244     0.238244     0.211294     0.211294     0.186291
     0.086291     0.072118     0.072118     0.067647     0.067647     0.073598     0.073598     0.086767
     0.086767     0.101199     0.251199     0.260857     0.260857     0.256773     0.256773     0.238244
     0.238244     0.211294     0.211294     0.186291     0.077995     0.069799     0.069799     0.072080
     0.072080     0.083302     0.083302     0.098499     0.098499     0.111039     0.261039     0.264599
     0.264599     0.252799     0.252799     0.228273     0.228273     0.199639     0.199639     0.177995
     0.077995     0.069799     0.069799     0.072080     0.072080     0.083302     0.083302     0.098499
     0.098499     0.111039     0.261039     0.264599     0.264599     0.252799     0.252799     0.228273
     0.228273     0.199639     0.199639     0.177995     0.072669     0.071148     0.071148     0.079653
     0.079653     0.094569     0.094569     0.109695     0.109695     0.118422     0.268422     0.264722
     0.264722     0.245608     0.245608     0.216879     0.216879     0.188972     0.188972     0.172669
     0.072669     0.071148     0.071148     0.079653     0.079653     0.094569     0.094569     0.109695
     0.109695     0.118422     0.268422     0.264722     0.264722     0.245608     0.245608     0.216879
     0.216879     0.188972     0.188972     0.172669     0.070833     0.076032     0.076032     0.089625
     0.089625     0.106296     0.106296     0.119259     0.119259     0.122627     0.272627     0.261214
     0.261214     0.235904     0.235904     0.205178     0.205178     0.180335     0.180335     0.170833
     0.070833     0.076032     0.076032     0.089625     0.089625     0.106296     0.106296     0.119259
     0.119259     0.122627     0.272627     0.261214     0.261214     0.235904     0.235904     0.205178
     0.205178     0.180335     0.180335     0.170833     0.072669     0.083973     0.083973     0.101018
     0.101018     0.117335     0.117335     0.126254     0.126254     0.123241     0.273241     0.254417
     0.254417     0.224638     0.224638     0.194315     0.194315     0.174576     0.174576     0.172669
     0.072669     0.083973     0.083973     0.101018     0.101018     0.117335     0.117335     0.126254
     0.126254     0.123241     0.273241     0.254417     0.254417     0.224638     0.224638     0.194315
     0.194315     0.174576     0.174576     0.172669     0.077995     0.094195     0.094195     0.112720
     0.112720     0.126605     0.126605     0.129996     0.129996     0.120204     0.270204     0.244998
     0.244998     0.212911     0.212911     0.185354     0.185354     0.172257     0.172257     0.177995
     0.077995     0.094195     0.094195     0.112720     0.112720     0.126605     0.126605     0.129996
     0.129996     0.120204     0.270204     0.244998     0.244998     0.212911     0.212911     0.185354
     0.185354     0.172257     0.172257     0.177995     0.086291     0.105696     0.105696     0.123582
     0.123582     0.133200     0.133200     0.130119     0.130119     0.113814     0.263814     0.233878
     0.233878     0.201872     0.201872     0.179171     0.179171     0.173605     0.173605     0.186291
     0.086291     0.105696     0.105696     0.123582     0.123582     0.133200     0.133200     0.130119
     0.130119     0.113814     0.263814     0.233878     0.233878     0.201872     0.201872     0.179171
     0.179171     0.173605     0.173605     0.186291     0.096745     0.117351     0.117351     0.132544
     0.132544     0.136473     0.136473     0.126610     0.126610     0.104697     0.254697     0.222146
     0.222146     0.192601     0.192601     0.176373     0.176373     0.178489     0.178489     0.196745
     0.096745     0.117351     0.117351     0.132544     0.132544     0.136473     0.136473     0.126610
     0.126610     0.104697     0.254697     0.222146     0.222146     0.192601     0.192601     0.176373
     0.176373     0.178489     0.178489     0.196745     0.108333     0.128019     0.128019     0.138726
     0.138726     0.136105     0.136105     0.119814     0.119814     0.093743     0.243743     0.210951
     0.210951     0.186007     0.186007     0.177232     0.177232     0.186431     0.186431     0.208333
     0.108333     0.086514     0.086514     0.069586     0.069586     0.062433     0.062433     0.066228
     0.066228     0.078150     0.228150     0.244298     0.244298     0.253869     0.253869     0.250250
     0.250250     0.233017     0.233017     0.208333     0.096745     0.077878     0.077878     0.066788
     0.066788     0.066407     0.066407     0.075648     0.075648     0.089866     0.239866     0.253862
     0.253862     0.257142     0.257142     0.245817     0.245817     0.222795     0.222795     0.196745
     0.096745     0.077878     0.077878     0.066788     0.066788     0.066407     0.066407     0.075648
     0.075648     0.089866     0.239866     0.253862     0.253862     0.257142     0.257142     0.245817
     0.245817     0.222795     0.222795     0.196745     0.086291     0.072118     0.072118     0.067647
     0.067647     0.073598     0.073598     0.086767     0.086767     0.101199     0.251199     0.260857
     0.260857     0.256773     0.256773     0.238244     0.238244     0.211294     0.211294     0.186291
     0.086291     0.072118     0.072118     0.067647     0.067647     0.073598     0.073598     0.086767
     0.086767     0.101199     0.251199     0.260857     0.260857     0.256773     0.256773     0.238244
     0.238244     0.211294     0.211294     0.186291     0.077995     0.069799     0.069799     0.072080
     0.072080     0.083302     0.083302     0.098499     0.098499     0.111039     0.261039     0.264599
     0.264599     0.252799     0.252799     0.228273     0.228273     0.199639     0.199639     0.177995
     0.077995     0.069799     0.069799     0.072080     0.072080     0.083302     0.083302     0.098499
     0.098499     0.111039     0.261039     0.264599     0.264599     0.252799     0.252799     0.228273
     0.228273     0.199639     0.199639     0.177995     0.072669     0.071148     0.071148     0.079653
     0.079653     0.094569     0.094569     0.109695     0.109695     0.118422     0.268422     0.264722
     0.264722     0.245608     0.245608     0.216879     0.216879     0.188972     0.188972     0.172669
     0.072669     0.071148     0.071148     0.079653     0.079653     0.094569     0.094569     0.109695
     0.109695     0.118422     0.268422     0.264722     0.264722     0.245608     0.245608     0.216879
     0.216879     0.188972     0.188972     0.172669     0.070833     0.076032     0.076032     0.089625
     0.089625     0.106296     0.106296     0.119259     0.119259     0.122627     0.272627     0.261214
     0.261214     0.235904     0.235904     0.205178     0.205178     0.180335     0.180335     0.170833
     0.070833     0.076032     0.076032     0.089625     0.089625     0.106296     0.106296     0.119259
     0.119259     0.122627     0.272627     0.261214     0.261214     0.235904     0.235904     0.205178
     0.205178     0.180335     0.180335     0.170833     0.072669     0.083973     0.083973     0.101018
     0.101018     0.117335     0.117335     0.126254     0.126254     0.123241     0.273241     0.254417
     0.254417     0.224638     0.224638     0.194315     0.194315     0.174576     0.174576     0.172669
     0.072669     0.083973     0.083973     0.101018     0.101018     0.117335     0.117335     0.126254
     0.126254     0.123241     0.273241     0.254417     0.254417     0.224638     0.224638     0.194315
     0.194315     0.174576     0.174576     0.172669     0.077995     0.094195     0.094195     0.112720
     0.112720     0.126605     0.126605     0.129996     0.129996     0.120204     0.270204     0.244998
     0.244998     0.212911     0.212911     0.185354     0.185354     0.172257     0.172257     0.177995
     0.077995     0.094195     0.094195     0.112720     0.112720     0.126605     0.126605     0.129996
     0.129996     0.120204     0.270204     0.244998     0.244998     0.212911     0.212911     0.185354
     0.185354     0.172257     0.172257     0.177995     0.086291     0.105696     0.105696     0.123582
     0.123582     0.133200     0.133200     0.130119     0.130119     0.113814     0.263814     0.233878
     0.233878     0.201872     0.201872     0.179171     0.179171     0.173605     0.173605     0.186291
     0.086291     0.105696     0.105696     0.123582     0.123582     0.133200     0.133200     0.130119
     0.130119     0.113814     0.263814     0.233878     0.233878     0.201872     0.201872     0.179171
     0.179171     0.173605     0.173605     0.186291     0.096745     0.117351     0.117351     0.132544
     0.132544     0.136473     0.136473     0.126610     0.126610     0.104697     0.254697     0.222146
     0.222146     0.192601     0.192601     0.176373     0.176373     0.178489     0.178489     0.196745
     0.096745     0.117351     0.117351     0.132544     0.132544     0.136473     0.136473     0.126610
     0.126610     0.104697     0.254697     0.222146     0.222146     0.192601     0.192601     0.176373
     0.176373     0.178489     0.178489     0.196745     0.108333     0.128019     0.128019     0.138726
     0.138726     0.136105     0.136105     0.119814     0.119814     0.093743     0.243743     0.210951
     0.210951     0.186007     0.186007     0.177232     0.177232     0.186431     0.186431     0.208333
     0.191667     0.169121     0.169121     0.152047     0.152047     0.145667     0.145667     0.150878
     0.150878     0.164055     0.314055     0.329370     0.329370     0.337481     0.337481     0.332872
     0.332872     0.315645     0.315645     0.291667     0.180079     0.160653     0.160653     0.149728
     0.149728     0.150327     0.150327     0.160849     0.160849     0.175772     0.325772     0.338331
     0.338331     0.340041     0.340041     0.327988     0.327988     0.305305     0.305305     0.280079
     0.180079     0.160653     0.160653     0.149728     0.149728     0.150327     0.150327     0.160849
     0.160849     0.175772     0.325772     0.338331     0.338331     0.340041     0.340041     0.327988
     0.327988     0.305305     0.305305     0.280079     0.169625     0.155109     0.155109     0.151077
     0.151077     0.158086     0.158086     0.172243     0.172243     0.186725     0.336725     0.344514
     0.344514     0.338936     0.338936     0.320046     0.320046     0.293758     0.293758     0.269625
     0.169625     0.155109     0.155109     0.151077     0.151077     0.158086     0.158086     0.172243
     0.172243     0.186725     0.336725     0.344514     0.344514     0.338936     0.338936     0.320046
     0.320046     0.293758     0.293758     0.269625     0.161329     0.153031     0.153031     0.155961
     0.155961     0.168185     0.168185     0.183944     0.183944     0.195843     0.345843     0.347312
     0.347312     0.334277     0.334277     0.309825     0.309825     0.282134     0.282134     0.261329
     0.161329     0.153031     0.153031     0.155961     0.155961     0.168185     0.168185     0.183944
     0.183944     0.195843     0.345843     0.347312     0.347312     0.334277     0.334277     0.309825
     0.309825     0.282134     0.282134     0.261329     0.156002     0.154623     0.154623     0.163902
     0.163902     0.179635     0.179635     0.194807     0.194807     0.202233     0.352233     0.346453
     0.346453     0.326518     0.326518     0.298324     0.298324     0.271571     0.271571     0.256002
     0.156002     0.154623     0.154623     0.163902     0.163902     0.179635     0.179635     0.194807
     0.194807     0.202233     0.352233     0.346453     0.346453     0.326518     0.326518     0.298324
     0.298324     0.271571     0.271571     0.256002     0.154167     0.159730     0.159730     0.174124
     0.174124     0.191315     0.191315     0.203768     0.203768     0.205270     0.355270     0.342020
     0.342020     0.316419     0.316419     0.286669     0.286669     0.263103     0.263103     0.254167
     0.154167     0.159730     0.159730     0.174124     0.174124     0.191315     0.191315     0.203768
     0.203768     0.205270     0.355270     0.342020     0.342020     0.316419     0.316419     0.286669
     0.286669     0.263103     0.263103     0.254167     0.156002     0.167850     0.167850     0.185625
     0.185625     0.202083     0.202083     0.209951     0.209951     0.204656     0.354656     0.334447
     0.334447     0.304969     0.304969     0.276001     0.276001     0.257558     0.257558     0.256002
     0.156002     0.167850     0.167850     0.185625     0.185625     0.202083     0.202083     0.209951
     0.209951     0.204656     0.354656     0.334447     0.334447     0.304969     0.304969     0.276001
     0.276001     0.257558     0.257558     0.256002     0.161329     0.178190     0.178190     0.197280
     0.197280     0.210884     0.210884     0.212749     0.212749     0.200451     0.350451     0.324476
     0.324476     0.293289     0.293289     0.267365     0.267365     0.255481     0.255481     0.261329
     0.161329     0.178190     0.178190     0.197280     0.197280     0.210884     0.210884     0.212749
     0.212749     0.200451     0.350451     0.324476     0.324476     0.293289     0.293289     0.267365
     0.267365     0.255481     0.255481     0.261329     0.169625     0.189737     0.189737     0.207948
     0.207948     0.216856     0.216856     0.211890     0.211890     0.193067     0.343067     0.313082
     0.313082     0.282521     0.282521     0.261605     0.261605     0.257073     0.257073     0.269625
     0.169625     0.189737     0.189737     0.207948     0.207948     0.216856     0.216856     0.211890
     0.211890     0.193067     0.343067     0.313082     0.313082     0.282521     0.282521     0.261605
     0.261605     0.257073     0.257073     0.269625     0.180079     0.201361     0.201361     0.216584