-- The following file was written from MATLAB using the MRST toolbox.

SPECGRID
20 20 5 1 F
/

COORD
     0.000000     0.000000     0.025000     0.000000     0.000000     0.275000
     0.045000     0.000000     0.014288     0.050000     0.000000     0.263104
     0.090000     0.000000     0.003914     0.100000     0.000000     0.251734
     0.135000     0.000000    -0.005344     0.150000     0.000000     0.241937
     0.180000     0.000000    -0.012823     0.200000     0.000000     0.234561
     0.225000     0.000000    -0.018028     0.250000     0.000000     0.230178
     0.270000     0.000000    -0.020672     0.300000     0.000000     0.229030
     0.315000     0.000000    -0.020690     0.350000     0.000000     0.231012
     0.360000     0.000000    -0.018250     0.400000     0.000000     0.235683
     0.405000     0.000000    -0.013727     0.450000     0.000000     0.242323
     0.450000     0.000000    -0.007677     0.500000     0.000000     0.250000
     0.505000     0.000000     0.000785     0.550000     0.000000     0.257677
     0.560000     0.000000     0.009120     0.600000     0.000000     0.264317
     0.615000     0.000000     0.015962     0.650000     0.000000     0.268988
     0.670000     0.000000     0.020135     0.700000     0.000000     0.270970
     0.725000     0.000000     0.020802     0.750000     0.000000     0.269822
     0.780000     0.000000     0.017573     0.800000     0.000000     0.265439
     0.835000     0.000000     0.010562     0.850000     0.000000     0.258063
     0.890000     0.000000     0.000381     0.900000     0.000000     0.248266
     0.945000     0.000000    -0.011925     0.950000     0.000000     0.236896
     1.000000     0.000000    -0.025000     1.000000     0.000000     0.225000
     0.000000     0.050000     0.019134     0.000000     0.050000     0.269134
     0.045000     0.050000     0.008784     0.050000     0.050000     0.257668
     0.090000     0.050000    -0.000792     0.100000     0.050000     0.247260
     0.135000     0.050000    -0.008877     0.150000     0.050000     0.238862
     0.180000     0.050000    -0.014903     0.200000     0.050000     0.233187
     0.225000     0.050000    -0.018490     0.250000     0.050000     0.230639
     0.270000     0.050000    -0.019478     0.300000     0.050000     0.231282
     0.315000     0.050000    -0.017937     0.350000     0.050000     0.234833
     0.360000     0.050000    -0.014155     0.400000     0.050000     0.240701
     0.405000     0.050000    -0.008616     0.450000     0.050000     0.248045
     0.450000     0.050000    -0.001955     0.500000     0.050000     0.255866
     0.505000     0.050000     0.006634     0.550000     0.050000     0.263114
     0.560000     0.050000     0.014405     0.600000     0.050000     0.268791
     0.615000     0.050000     0.020057     0.650000     0.050000     0.272063
     0.670000     0.050000     0.022557     0.700000     0.050000     0.272344
     0.725000     0.050000     0.021264     0.750000     0.050000     0.269361
     0.780000     0.050000     0.016020     0.800000     0.050000     0.263187
     0.835000     0.050000     0.007178     0.850000     0.050000     0.254241
     0.890000     0.050000    -0.004433     0.900000     0.050000     0.243248
     0.945000     0.050000    -0.017601     0.950000     0.050000     0.231174
     1.000000     0.050000    -0.030866     1.000000     0.050000     0.219134
     0.000000     0.100000     0.013412     0.000000     0.100000     0.263412
     0.045000     0.100000     0.003672     0.050000     0.100000     0.252650
     0.090000     0.100000    -0.004887     0.100000     0.100000     0.243438
     0.135000     0.100000    -0.011631     0.150000     0.100000     0.236611
     0.180000     0.100000    -0.016096     0.200000     0.100000     0.232725
     0.225000     0.100000    -0.018028     0.250000     0.100000     0.232013
     0.270000     0.100000    -0.017398     0.300000     0.100000     0.234356
     0.315000     0.100000    -0.014404     0.350000     0.100000     0.239308
     0.360000     0.100000    -0.009449     0.400000     0.100000     0.246137
     0.405000     0.100000    -0.003111     0.450000     0.100000     0.253911
     0.450000     0.100000     0.003911     0.500000     0.100000     0.261588
     0.505000     0.100000     0.012310     0.550000     0.100000     0.268131
     0.560000     0.100000     0.019219     0.600000     0.100000     0.272613
     0.615000     0.100000     0.023441     0.650000     0.100000     0.274315
     0.670000     0.100000     0.024110     0.700000     0.100000     0.272805
     0.725000     0.100000     0.020802     0.750000     0.100000     0.267987
     0.780000     0.100000     0.013599     0.800000     0.100000     0.260113
     0.835000     0.100000     0.003083     0.850000     0.100000     0.249767
     0.890000     0.100000    -0.009717     0.900000     0.100000     0.237812
     0.945000     0.100000    -0.023450     0.950000     0.100000     0.225308
     1.000000     0.100000    -0.036588     1.000000     0.100000     0.213412
     0.000000     0.150000     0.007975     0.000000     0.150000     0.257975
     0.045000     0.150000    -0.000920     0.050000     0.150000     0.248176
     0.090000     0.150000    -0.008270     0.100000     0.150000     0.240364
     0.135000     0.150000    -0.013537     0.150000     0.150000     0.235237
     0.180000     0.150000    -0.016373     0.200000     0.150000     0.233187
     0.225000     0.150000    -0.016654     0.250000     0.150000     0.234265
     0.270000     0.150000    -0.014483     0.300000     0.150000     0.238178
     0.315000     0.150000    -0.010178     0.350000     0.150000     0.244325
     0.360000     0.150000    -0.004249     0.400000     0.150000     0.251859
     0.405000     0.150000     0.002651     0.450000     0.150000     0.259777
     0.450000     0.150000     0.009777     0.500000     0.150000     0.267025
     0.505000     0.150000     0.017673     0.550000     0.150000     0.272606
     0.560000     0.150000     0.023445     0.600000     0.150000     0.275687
     0.615000     0.150000     0.026030     0.650000     0.150000     0.275689
     0.670000     0.150000     0.024755     0.700000     0.150000     0.272344
     0.725000     0.150000     0.019428     0.750000     0.150000     0.265735
     0.780000     0.150000     0.010368     0.800000     0.150000     0.256291
     0.835000     0.150000    -0.001622     0.850000     0.150000     0.244749
     0.890000     0.150000    -0.015342     0.900000     0.150000     0.232090
     0.945000     0.150000    -0.029328     0.950000     0.150000     0.219441
     1.000000     0.150000    -0.042025     1.000000     0.150000     0.207975
     0.000000     0.200000     0.002958     0.000000     0.200000     0.252958
     0.045000     0.200000    -0.004880     0.050000     0.200000     0.244354
     0.090000     0.200000    -0.010859     0.100000     0.200000     0.238112
     0.135000     0.200000    -0.014548     0.150000     0.200000     0.234775
     0.180000     0.200000    -0.015728     0.200000     0.200000     0.234561
     0.225000     0.200000    -0.014403     0.250000     0.200000     0.237340
     0.270000     0.200000    -0.010804     0.300000     0.200000     0.242653
     0.315000     0.200000    -0.005363     0.350000     0.200000     0.249762
     0.360000     0.200000     0.001319     0.400000     0.200000     0.257725
     0.405000     0.200000     0.008529     0.450000     0.200000     0.265499
     0.450000     0.200000     0.015499     0.500000     0.200000     0.272042
     0.505000     0.200000     0.022591     0.550000     0.200000     0.276427
     0.560000     0.200000     0.026978     0.600000     0.200000     0.277939
     0.615000     0.200000     0.027760     0.650000     0.200000     0.276150
     0.670000     0.200000     0.024478     0.700000     0.200000     0.270970
     0.725000     0.200000     0.017177     0.750000     0.200000     0.262660
     0.780000     0.200000     0.006408     0.800000     0.200000     0.251817
     0.835000     0.200000    -0.006823     0.850000     0.200000     0.239313
     0.890000     0.200000    -0.021167     0.900000     0.200000     0.226224
     0.945000     0.200000    -0.035090     0.950000     0.200000     0.213720
     1.000000     0.200000    -0.047042     1.000000     0.200000     0.202958
     0.000000     0.250000    -0.001517     0.000000     0.250000     0.248483
     0.045000     0.250000    -0.008111     0.050000     0.250000     0.241279
     0.090000     0.250000    -0.012590     0.100000     0.250000     0.236738
     0.135000     0.250000    -0.014641     0.150000     0.250000     0.235237
     0.180000     0.250000    -0.014175     0.200000     0.250000     0.236813
     0.225000     0.250000    -0.011328     0.250000     0.250000     0.241161
     0.270000     0.250000    -0.006451     0.300000     0.250000     0.247670
     0.315000     0.250000    -0.000079     0.350000     0.250000     0.255483
     0.360000     0.250000     0.007115     0.400000     0.250000     0.263592
     0.405000     0.250000     0.014378     0.450000     0.250000     0.270936
     0.450000     0.250000     0.020936     0.500000     0.250000     0.276517
     0.505000     0.250000     0.026944     0.550000     0.250000     0.279502
     0.560000     0.250000     0.029731     0.600000     0.250000     0.279313
     0.615000     0.250000     0.028589     0.650000     0.250000     0.275689
     0.670000     0.250000     0.023285     0.700000     0.250000     0.268718
     0.725000     0.250000     0.014102     0.750000     0.250000     0.258839
     0.780000     0.250000     0.001815     0.800000     0.250000     0.246799
     0.835000     0.250000    -0.012390     0.850000     0.250000     0.233591
     0.890000     0.250000    -0.027051     0.900000     0.250000     0.220357
     0.945000     0.250000    -0.040594     0.950000     0.250000     0.208283
     1.000000     0.250000    -0.051517     1.000000     0.250000     0.198483
     0.000000     0.300000    -0.005338     0.000000     0.300000     0.244662
     0.045000     0.300000    -0.010532     0.050000     0.300000     0.239028
     0.090000     0.300000    -0.013419     0.100000     0.300000     0.236276
     0.135000     0.300000    -0.013812     0.150000     0.300000     0.236611
     0.180000     0.300000    -0.011753     0.200000     0.300000     0.239887
     0.225000     0.300000    -0.007506     0.250000     0.300000     0.245636
     0.270000     0.300000    -0.001533     0.300000     0.300000     0.253106
     0.315000     0.300000     0.005545     0.350000     0.300000     0.261350
     0.360000     0.300000     0.012999     0.400000     0.300000     0.269314
     0.405000     0.300000     0.020054     0.450000     0.300000     0.275953
     0.450000     0.300000     0.025953     0.500000     0.300000     0.280338
     0.505000     0.300000     0.030623     0.550000     0.300000     0.281754
     0.560000     0.300000     0.031637     0.600000     0.300000     0.279775
     0.615000     0.300000     0.028497     0.650000     0.300000     0.274315
     0.670000     0.300000     0.021205     0.700000     0.300000     0.265644
     0.725000     0.300000     0.010280     0.750000     0.300000     0.254364
     0.780000     0.300000    -0.003296     0.800000     0.300000     0.241363
     0.835000     0.300000    -0.018187     0.850000     0.300000     0.227725
     0.890000     0.300000    -0.032848     0.900000     0.300000     0.214635
     0.945000     0.300000    -0.045706     0.950000     0.300000     0.203266
     1.000000     0.300000    -0.055338     1.000000     0.300000     0.194662
     0.000000     0.350000    -0.008413     0.000000     0.350000     0.241587
     0.045000     0.350000    -0.012085     0.050000     0.350000     0.237654
     0.090000     0.350000    -0.013326     0.100000     0.350000     0.236738
     0.135000     0.350000    -0.012082     0.150000     0.350000     0.238862
     0.180000     0.350000    -0.008523     0.200000     0.350000     0.243709
     0.225000     0.350000    -0.003032     0.250000     0.350000     0.250653
     0.270000     0.350000     0.003830     0.300000     0.350000     0.258828
     0.315000     0.350000     0.011371     0.350000     0.350000     0.267216
     0.360000     0.350000     0.018825     0.400000     0.350000     0.274750
     0.405000     0.350000     0.025417     0.450000     0.350000     0.280427
     0.450000     0.350000     0.030427     0.500000     0.350000     0.283413
     0.505000     0.350000     0.033538     0.550000     0.350000     0.283127
     0.560000     0.350000     0.032649     0.600000     0.350000     0.279313
     0.615000     0.350000     0.027485     0.650000     0.350000     0.272063
     0.670000     0.350000     0.018289     0.700000     0.350000     0.261822
     0.725000     0.350000     0.005806     0.750000     0.350000     0.249347
     0.780000     0.350000    -0.008801     0.800000     0.350000     0.235641
     0.835000     0.350000    -0.024070     0.850000     0.350000     0.221859
     0.890000     0.350000    -0.038415     0.900000     0.350000     0.209199
     0.945000     0.350000    -0.050298     0.950000     0.350000     0.198791
     1.000000     0.350000    -0.058413     1.000000     0.350000     0.191587
     0.000000     0.400000    -0.010665     0.000000     0.400000     0.239335
     0.045000     0.400000    -0.012731     0.050000     0.400000     0.237192
     0.090000     0.400000    -0.012315     0.100000     0.400000     0.238112
     0.135000     0.400000    -0.009493     0.150000     0.400000     0.241937
     0.180000     0.400000    -0.004562     0.200000     0.400000     0.248183
     0.225000     0.400000     0.001986     0.250000     0.400000     0.256090
     0.270000     0.400000     0.009506     0.300000     0.400000     0.264695
     0.315000     0.400000     0.017255     0.350000     0.400000     0.272938
     0.360000     0.400000     0.024449     0.400000     0.400000     0.279767
     0.405000     0.400000     0.030335     0.450000     0.400000     0.284249
     0.450000     0.400000     0.034249     0.500000     0.400000     0.285665
     0.505000     0.400000     0.035618     0.550000     0.400000     0.283589
     0.560000     0.400000     0.032741     0.600000     0.400000     0.277939
     0.615000     0.400000     0.025579     0.650000     0.400000     0.268988
     0.670000     0.400000     0.014610     0.700000     0.400000     0.257347
     0.725000     0.400000     0.000788     0.750000     0.400000     0.243910
     0.780000     0.400000    -0.014563     0.800000     0.400000     0.229775
     0.835000     0.400000    -0.029896     0.850000     0.400000     0.216137
     0.890000     0.400000    -0.043616     0.900000     0.400000     0.204182
     0.945000     0.400000    -0.054259     0.950000     0.400000     0.194970
     1.000000     0.400000    -0.060665     1.000000     0.400000     0.189335
     0.000000     0.450000    -0.012038     0.000000     0.450000     0.237962
     0.045000     0.450000    -0.012454     0.050000     0.450000     0.237654
     0.090000     0.450000    -0.010408     0.100000     0.450000     0.240364
     0.135000     0.450000    -0.006109     0.150000     0.450000     0.245759
     0.180000     0.450000     0.000030     0.200000     0.450000     0.253201
     0.225000     0.450000     0.007422     0.250000     0.450000     0.261811
     0.270000     0.450000     0.015355     0.300000     0.450000     0.270561
     0.315000     0.450000     0.023051     0.350000     0.450000     0.278374
     0.360000     0.450000     0.029734     0.400000     0.450000     0.284242
     0.405000     0.450000     0.034687     0.450000     0.450000     0.287324
     0.450000     0.450000     0.037324     0.500000     0.450000     0.287038
     0.505000     0.450000     0.036812     0.550000     0.450000     0.283127
     0.560000     0.450000     0.031912     0.600000     0.450000     0.275687
     0.615000     0.450000     0.022825     0.650000     0.450000     0.265167
     0.670000     0.450000     0.010258     0.700000     0.450000     0.252330
     0.725000     0.450000    -0.004648     0.750000     0.450000     0.238189
     0.780000     0.450000    -0.020441     0.800000     0.450000     0.223908
     0.835000     0.450000    -0.035520     0.850000     0.450000     0.210700
     0.890000     0.450000    -0.048321     0.900000     0.450000     0.199707
     0.945000     0.450000    -0.057489     0.950000     0.450000     0.191895
     1.000000     0.450000    -0.062038     1.000000     0.450000     0.187962
     0.000000     0.500000    -0.012500     0.000000     0.500000     0.237500
     0.045000     0.500000    -0.011260     0.050000     0.500000     0.239028
     0.090000     0.500000    -0.007655     0.100000     0.500000     0.243438
     0.135000     0.500000    -0.002014     0.150000     0.500000     0.250233
     0.180000     0.500000     0.005141     0.200000     0.500000     0.258637
     0.225000     0.500000     0.013144     0.250000     0.500000     0.267678
     0.270000     0.500000     0.021233     0.300000     0.500000     0.276283
     0.315000     0.500000     0.028619     0.350000     0.500000     0.283392
     0.360000     0.500000     0.034548     0.400000     0.500000     0.288064
     0.405000     0.500000     0.038367     0.450000     0.500000     0.289575
     0.450000     0.500000     0.039575     0.500000     0.500000     0.287500
     0.505000     0.500000     0.037089     0.550000     0.500000     0.281754
     0.560000     0.500000     0.030182     0.600000     0.500000     0.272613
     0.615000     0.500000     0.019292     0.650000     0.500000     0.260692
     0.670000     0.500000     0.005340     0.700000     0.500000     0.246894
     0.725000     0.500000    -0.010370     0.750000     0.500000     0.232322
     0.780000     0.500000    -0.026290     0.800000     0.500000     0.218186
     0.835000     0.500000    -0.040805     0.850000     0.500000     0.205683
     0.890000     0.500000    -0.052416     0.900000     0.500000     0.195885
     0.945000     0.500000    -0.059911     0.950000     0.500000     0.189643
     1.000000     0.500000    -0.062500     1.000000     0.500000     0.187500
     0.000000     0.550000    -0.012038     0.000000     0.550000     0.237962
     0.045000     0.550000    -0.009180     0.050000     0.550000     0.241279
     0.090000     0.550000    -0.004122     0.100000     0.550000     0.247260
     0.135000     0.550000     0.002692     0.150000     0.550000     0.255251
     0.180000     0.550000     0.010646     0.200000     0.550000     0.264359
     0.225000     0.550000     0.019010     0.250000     0.550000     0.273544
     0.270000     0.550000     0.026995     0.300000     0.550000     0.281719
     0.315000     0.550000     0.033819     0.350000     0.550000     0.287866
     0.360000     0.550000     0.038774     0.400000     0.550000     0.291138
     0.405000     0.550000     0.041282     0.450000     0.550000     0.290949
     0.450000     0.550000     0.040949     0.500000     0.550000     0.287038
     0.505000     0.550000     0.036443     0.550000     0.550000     0.279502
     0.560000     0.550000     0.027593     0.600000     0.550000     0.268791
     0.615000     0.550000     0.015067     0.650000     0.550000     0.255675
     0.670000     0.550000    -0.000023     0.700000     0.550000     0.241172
     0.725000     0.550000    -0.016236     0.750000     0.550000     0.226456
     0.780000     0.550000    -0.031966     0.800000     0.550000     0.212750
     0.835000     0.550000    -0.045619     0.850000     0.550000     0.201208
     0.890000     0.550000    -0.055800     0.900000     0.550000     0.192811
     0.945000     0.550000    -0.061464     0.950000     0.550000     0.188269
     1.000000     0.550000    -0.062038     1.000000     0.550000     0.187962
     0.000000     0.600000    -0.010665     0.000000     0.600000     0.239335
     0.045000     0.600000    -0.006265     0.050000     0.600000     0.244354
     0.090000     0.600000     0.000104     0.100000     0.600000     0.251734
     0.135000     0.600000     0.007892     0.150000     0.600000     0.260687
     0.180000     0.600000     0.016408     0.200000     0.600000     0.270225
     0.225000     0.600000     0.024876     0.250000     0.600000     0.279266
     0.270000     0.600000     0.032500     0.300000     0.600000     0.286737
     0.315000     0.600000     0.038525     0.350000     0.600000     0.291688
     0.360000     0.600000     0.042307     0.400000     0.600000     0.293390
     0.405000     0.600000     0.043362     0.450000     0.600000     0.291411
     0.450000     0.600000     0.041411     0.500000     0.600000     0.285665
     0.505000     0.600000     0.034890     0.550000     0.600000     0.276427
     0.560000     0.600000     0.024210     0.600000     0.600000     0.264317
     0.615000     0.600000     0.010252     0.650000     0.600000     0.250238
     0.670000     0.600000    -0.005699     0.700000     0.600000     0.235305
     0.725000     0.600000    -0.022102     0.750000     0.600000     0.220734
     0.780000     0.600000    -0.037329     0.800000     0.600000     0.207733
     0.835000     0.600000    -0.049845     0.850000     0.600000     0.197387
     0.890000     0.600000    -0.058389     0.900000     0.600000     0.190559
     0.945000     0.600000    -0.062109     0.950000     0.600000     0.187808
     1.000000     0.600000    -0.060665     1.000000     0.600000     0.189335
     0.000000     0.650000    -0.008413     0.000000     0.650000     0.241587
     0.045000     0.650000    -0.002586     0.050000     0.650000     0.248176
     0.090000     0.650000     0.004918     0.100000     0.650000     0.256752
     0.135000     0.650000     0.013459     0.150000     0.650000     0.266409
     0.180000     0.650000     0.022286     0.200000     0.650000     0.276092
     0.225000     0.650000     0.030598     0.250000     0.650000     0.284702
     0.270000     0.650000     0.037611     0.300000     0.650000     0.291211
     0.315000     0.650000     0.042620     0.350000     0.650000     0.294763
     0.360000     0.650000     0.045060     0.400000     0.650000     0.294764
     0.405000     0.650000     0.044555     0.450000     0.650000     0.290949
     0.450000     0.650000     0.040949     0.500000     0.650000     0.283413
     0.505000     0.650000     0.032469     0.550000     0.650000     0.272606
     0.560000     0.650000     0.020115     0.600000     0.650000     0.259299
     0.615000     0.650000     0.004968     0.650000     0.650000     0.244517
     0.670000     0.650000    -0.011548     0.700000     0.650000     0.229439
     0.725000     0.650000    -0.027824     0.750000     0.650000     0.215298
     0.780000     0.650000    -0.042247     0.800000     0.650000     0.203258
     0.835000     0.650000    -0.053378     0.850000     0.650000     0.194312
     0.890000     0.650000    -0.060119     0.900000     0.650000     0.189185
     0.945000     0.650000    -0.061832     0.950000     0.650000     0.188269
     1.000000     0.650000    -0.058413     1.000000     0.650000     0.191587
     0.000000     0.700000    -0.005338     0.000000     0.700000     0.244662
     0.045000     0.700000     0.001767     0.050000     0.700000     0.252650
     0.090000     0.700000     0.010203     0.100000     0.700000     0.262188
     0.135000     0.700000     0.019256     0.150000     0.700000     0.272275
     0.180000     0.700000     0.028135     0.200000     0.700000     0.281814
     0.225000     0.700000     0.036035     0.250000     0.700000     0.289720
     0.270000     0.700000     0.042203     0.300000     0.700000     0.295033
     0.315000     0.700000     0.046003     0.350000     0.700000     0.297014
     0.360000     0.700000     0.046966     0.400000     0.700000     0.295225
     0.405000     0.700000     0.044833     0.450000     0.700000     0.289575
     0.450000     0.700000     0.039575     0.500000     0.700000     0.280338
     0.505000     0.700000     0.029238     0.550000     0.700000     0.268131
     0.560000     0.700000     0.015409     0.600000     0.700000     0.253863
     0.615000     0.700000    -0.000656     0.650000     0.700000     0.238650
     0.670000     0.700000    -0.017426     0.700000     0.700000     0.223717
     0.725000     0.700000    -0.033261     0.750000     0.700000     0.210280
     0.780000     0.700000    -0.046599     0.800000     0.700000     0.199436
     0.835000     0.700000    -0.056132     0.850000     0.700000     0.192060
     0.890000     0.700000    -0.060948     0.900000     0.700000     0.188724
     0.945000     0.700000    -0.060639     0.950000     0.700000     0.189643
     1.000000     0.700000    -0.055338     1.000000     0.700000     0.194662
     0.000000     0.750000    -0.001517     0.000000     0.750000     0.248483
     0.045000     0.750000     0.006685     0.050000     0.750000     0.257668
     0.090000     0.750000     0.015827     0.100000     0.750000     0.267910
     0.135000     0.750000     0.025140     0.150000     0.750000     0.278141
     0.180000     0.750000     0.033811     0.200000     0.750000     0.287250
     0.225000     0.750000     0.041052     0.250000     0.750000     0.294194
     0.270000     0.750000     0.046164     0.300000     0.750000     0.298107
     0.315000     0.750000     0.048592     0.350000     0.750000     0.298388
     0.360000     0.750000     0.047978     0.400000     0.750000     0.294764
     0.405000     0.750000     0.044187     0.450000     0.750000     0.287324
     0.450000     0.750000     0.037324     0.500000     0.750000     0.276517
     0.505000     0.750000     0.025278     0.550000     0.750000     0.263114
     0.560000     0.750000     0.010209     0.600000     0.750000     0.248141
     0.615000     0.750000    -0.006482     0.650000     0.750000     0.232784
     0.670000     0.750000    -0.023188     0.700000     0.750000     0.218281
     0.725000     0.750000    -0.038278     0.750000     0.750000     0.205806
     0.780000     0.750000    -0.050278     0.800000     0.750000     0.196362
     0.835000     0.750000    -0.058038     0.850000     0.750000     0.190687
     0.890000     0.750000    -0.060856     0.900000     0.750000     0.189185
     0.945000     0.750000    -0.058559     0.950000     0.750000     0.191895
     1.000000     0.750000    -0.051517     1.000000     0.750000     0.198483
     0.000000     0.800000     0.002958     0.000000     0.800000     0.252958
     0.045000     0.800000     0.012048     0.050000     0.800000     0.263104
     0.090000     0.800000     0.021653     0.100000     0.800000     0.273776
     0.135000     0.800000     0.030965     0.150000     0.800000     0.283863
     0.180000     0.800000     0.039174     0.200000     0.800000     0.292267
     0.225000     0.800000     0.045527     0.250000     0.800000     0.298016
     0.270000     0.800000     0.049394     0.300000     0.800000     0.300359
     0.315000     0.800000     0.050322     0.350000     0.800000     0.298850
     0.360000     0.800000     0.048070     0.400000     0.800000     0.293390
     0.405000     0.800000     0.042634     0.450000     0.800000     0.284249
     0.450000     0.800000     0.034249     0.500000     0.800000     0.272042
     0.505000     0.800000     0.020685     0.550000     0.800000     0.257677
     0.560000     0.800000     0.004641     0.600000     0.800000     0.242275
     0.615000     0.800000    -0.012366     0.650000     0.800000     0.227062
     0.670000     0.800000    -0.028693     0.700000     0.800000     0.213263
     0.725000     0.800000    -0.042753     0.750000     0.800000     0.201984
     0.780000     0.800000    -0.053194     0.800000     0.800000     0.194110
     0.835000     0.800000    -0.059049     0.850000     0.800000     0.190225
     0.890000     0.800000    -0.059844     0.900000     0.800000     0.190559
     0.945000     0.800000    -0.055643     0.950000     0.800000     0.194970
     1.000000     0.800000    -0.047042     1.000000     0.800000     0.202958
     0.000000     0.850000     0.007975     0.000000     0.850000     0.257975
     0.045000     0.850000     0.017724     0.050000     0.850000     0.268826
     0.090000     0.850000     0.027536     0.100000     0.850000     0.279643
     0.135000     0.850000     0.036590     0.150000     0.850000     0.289300
     0.180000     0.850000     0.044092     0.200000     0.850000     0.296742
     0.225000     0.850000     0.049348     0.250000     0.850000     0.301090
     0.270000     0.850000     0.051816     0.300000     0.850000     0.301733
     0.315000     0.850000     0.051152     0.350000     0.850000     0.298388
     0.360000     0.850000     0.047241     0.400000     0.850000     0.291138
     0.405000     0.850000     0.040213     0.450000     0.850000     0.280427
     0.450000     0.850000     0.030427     0.500000     0.850000     0.267025
     0.505000     0.850000     0.015574     0.550000     0.850000     0.251955
     0.560000     0.850000    -0.001155     0.600000     0.850000     0.236408
     0.615000     0.850000    -0.018163     0.650000     0.850000     0.221626
     0.670000     0.850000    -0.033804     0.700000     0.850000     0.208789
     0.725000     0.850000    -0.046574     0.750000     0.850000     0.198910
     0.780000     0.850000    -0.055274     0.800000     0.850000     0.192736
     0.835000     0.850000    -0.059142     0.850000     0.850000     0.190687
     0.890000     0.850000    -0.057938     0.900000     0.850000     0.192811
     0.945000     0.850000    -0.051964     0.950000     0.850000     0.198791
     1.000000     0.850000    -0.042025     1.000000     0.850000     0.207975