NOECHO
PINCH
/
MAPUNITS
 'FEET    '
/
MAPAXES
   0.54950006E+06   0.67979000E+07   0.54950006E+06   0.67980000E+07
   0.54960013E+06   0.67980000E+07
/
GRIDUNIT
 'FEET    ' '        '
/
SPECGRID
14 14 5 1 F
/
COORD
   0.27789375E+04  -0.10790001E+05   0.34318538E+04   0.27789375E+04
  -0.10790001E+05   0.37518538E+04
   0.34300417E+04  -0.10789999E+05   0.33651938E+04   0.34300417E+04
  -0.10789999E+05   0.36851938E+04
   0.40811460E+04  -0.10790001E+05   0.33158789E+04   0.40811460E+04
  -0.10790001E+05   0.36358789E+04
   0.47322500E+04  -0.10790000E+05   0.32487073E+04   0.47322500E+04
  -0.10790000E+05   0.35689661E+04
   0.53833545E+04  -0.10790001E+05   0.29412827E+04   0.53833545E+04
  -0.10790001E+05   0.32850649E+04
   0.56816035E+04  -0.10790000E+05   0.29530381E+04   0.56816035E+04
  -0.10790000E+05   0.33100789E+04
   0.59798521E+04  -0.10790001E+05   0.29586743E+04   0.59798521E+04
  -0.10790001E+05   0.33287737E+04
   0.62781006E+04  -0.10790000E+05   0.29740752E+04   0.62781006E+04
  -0.10790000E+05   0.33566223E+04
   0.65763501E+04  -0.10790000E+05   0.29894846E+04   0.65763501E+04
  -0.10790000E+05   0.33836938E+04
   0.68745991E+04  -0.10790000E+05   0.30092332E+04   0.68745991E+04
  -0.10790000E+05   0.34147478E+04
   0.71728481E+04  -0.10790000E+05   0.30700129E+04   0.71728481E+04
  -0.10790000E+05   0.34867227E+04
   0.78798813E+04  -0.10790000E+05   0.30852356E+04   0.78798813E+04
  -0.10790000E+05   0.35286150E+04
   0.85869141E+04  -0.10789997E+05   0.33780630E+04   0.85869141E+04
  -0.10789997E+05   0.38493938E+04
   0.91274268E+04  -0.10790001E+05   0.34304207E+04   0.91274268E+04
  -0.10790001E+05   0.39255999E+04
   0.96679375E+04  -0.10790000E+05   0.34650330E+04   0.96679375E+04
  -0.10790000E+05   0.39857646E+04
   0.25927234E+04  -0.10057858E+05   0.33071899E+04   0.25927234E+04
  -0.10057858E+05   0.36271899E+04
   0.32220579E+04  -0.10053644E+05   0.32269309E+04   0.32220579E+04
  -0.10053644E+05   0.35469309E+04
   0.38513918E+04  -0.10049436E+05   0.31345508E+04   0.38513918E+04
  -0.10049436E+05   0.34545508E+04
   0.44807256E+04  -0.10045222E+05   0.30539558E+04   0.44807256E+04
  -0.10045222E+05   0.33739558E+04
   0.51100605E+04  -0.10041011E+05   0.28094272E+04   0.51100605E+04
  -0.10041011E+05   0.31289946E+04
   0.54947031E+04  -0.10046392E+05   0.28269785E+04   0.54947031E+04
  -0.10046392E+05   0.31637395E+04
   0.58793452E+04  -0.10051776E+05   0.28380110E+04   0.58793452E+04
  -0.10051776E+05   0.31942417E+04
   0.62639873E+04  -0.10057157E+05   0.28554978E+04   0.62639873E+04
  -0.10057157E+05   0.32298542E+04
   0.66486304E+04  -0.10062540E+05   0.28815530E+04   0.66486304E+04
  -0.10062540E+05   0.32709414E+04
   0.70332729E+04  -0.10067922E+05   0.29065366E+04   0.70332729E+04
  -0.10067922E+05   0.33106726E+04
   0.74179160E+04  -0.10073306E+05   0.30486731E+04   0.74179160E+04
  -0.10073306E+05   0.34703979E+04
   0.79962725E+04  -0.10060912E+05   0.30597754E+04   0.79962725E+04
  -0.10060912E+05   0.35015950E+04
   0.85746289E+04  -0.10048517E+05   0.32799060E+04   0.85746289E+04
  -0.10048517E+05   0.37457456E+04
   0.91642471E+04  -0.10057833E+05   0.33405491E+04   0.91642471E+04
  -0.10057833E+05   0.38311909E+04
   0.97538662E+04  -0.10067143E+05   0.33970920E+04   0.97538662E+04
  -0.10067143E+05   0.39162153E+04
   0.24065093E+04  -0.93257148E+04   0.31855901E+04   0.24065093E+04
  -0.93257148E+04   0.35055901E+04
   0.30198518E+04  -0.93154785E+04   0.30859448E+04   0.30198518E+04
  -0.93154785E+04   0.34059448E+04
   0.36331943E+04  -0.93052461E+04   0.29714250E+04   0.36331943E+04
  -0.93052461E+04   0.32914250E+04
   0.42465371E+04  -0.92950107E+04   0.28732664E+04   0.42465371E+04
  -0.92950107E+04   0.31932664E+04
   0.48598789E+04  -0.92847773E+04   0.27035737E+04   0.48598789E+04
  -0.92847773E+04   0.30233999E+04
   0.53260640E+04  -0.92964229E+04   0.27275608E+04   0.53260640E+04
  -0.92964229E+04   0.30487463E+04
   0.57922476E+04  -0.93080693E+04   0.27437268E+04   0.57922476E+04
  -0.93080693E+04   0.30880647E+04
   0.62584321E+04  -0.93197129E+04   0.27690896E+04   0.62584321E+04
  -0.93197129E+04   0.31376658E+04
   0.67246172E+04  -0.93313613E+04   0.27914294E+04   0.67246172E+04
  -0.93313613E+04   0.31797112E+04
   0.71908018E+04  -0.93430078E+04   0.28471199E+04   0.71908018E+04
  -0.93430078E+04   0.32541526E+04
   0.76569878E+04  -0.93546523E+04   0.30173618E+04   0.76569878E+04
  -0.93546523E+04   0.34456953E+04
   0.81212085E+04  -0.93307725E+04   0.30281807E+04   0.81212085E+04
  -0.93307725E+04   0.34732744E+04
   0.85854287E+04  -0.93068906E+04   0.31619749E+04   0.85854287E+04
  -0.93068906E+04   0.36281545E+04
   0.92126123E+04  -0.93255889E+04   0.32481384E+04   0.92126123E+04
  -0.93255889E+04   0.37396226E+04
   0.98397949E+04  -0.93442852E+04   0.33280771E+04   0.98397949E+04
  -0.93442852E+04   0.38474111E+04
   0.22202949E+04  -0.85935723E+04   0.30898696E+04   0.22202949E+04
  -0.85935723E+04   0.34098696E+04
   0.27998198E+04  -0.85843955E+04   0.29574873E+04   0.27998198E+04
  -0.85843955E+04   0.32774873E+04
   0.33793455E+04  -0.85752246E+04   0.28708794E+04   0.33793455E+04
  -0.85752246E+04   0.31908794E+04
   0.39588704E+04  -0.85660479E+04   0.27980378E+04   0.39588704E+04
  -0.85660479E+04   0.31180378E+04
   0.45383955E+04  -0.85568730E+04   0.26164727E+04   0.45383955E+04
  -0.85568730E+04   0.29364727E+04
   0.50991602E+04  -0.85706592E+04   0.26341221E+04   0.50991602E+04
  -0.85706592E+04   0.29541221E+04
   0.56599238E+04  -0.85844453E+04   0.26485039E+04   0.56599238E+04
  -0.85844453E+04   0.29852498E+04
   0.62206870E+04  -0.85982305E+04   0.26865146E+04   0.62206870E+04
  -0.85982305E+04   0.30522888E+04
   0.67814531E+04  -0.86120166E+04   0.27392288E+04   0.67814531E+04
  -0.86120166E+04   0.31296882E+04
   0.73422168E+04  -0.86258018E+04   0.27871663E+04   0.73422168E+04
  -0.86258018E+04   0.32007542E+04
   0.79029824E+04  -0.86395879E+04   0.29870938E+04   0.79029824E+04
  -0.86395879E+04   0.34268381E+04
   0.82561797E+04  -0.86025527E+04   0.29968752E+04   0.82561797E+04
  -0.86025527E+04   0.34489719E+04
   0.86093789E+04  -0.85655127E+04   0.30624968E+04   0.86093789E+04
  -0.85655127E+04   0.35318542E+04
   0.92675508E+04  -0.85934717E+04   0.31556448E+04   0.92675508E+04
  -0.85934717E+04   0.36504651E+04
   0.99257236E+04  -0.86214277E+04   0.32778843E+04   0.99257236E+04
  -0.86214277E+04   0.38010012E+04
   0.20340804E+04  -0.78614292E+04   0.30295347E+04   0.20340804E+04
  -0.78614292E+04   0.33495347E+04
   0.25774099E+04  -0.78546475E+04   0.28968701E+04   0.25774099E+04
  -0.78546475E+04   0.32168701E+04
   0.31207383E+04  -0.78478662E+04   0.28023848E+04   0.31207383E+04
  -0.78478662E+04   0.31223848E+04
   0.36640679E+04  -0.78410845E+04   0.27755752E+04   0.36640679E+04
  -0.78410845E+04   0.30955752E+04
   0.42073965E+04  -0.78343027E+04   0.25749341E+04   0.42073965E+04
  -0.78343027E+04   0.28949341E+04
   0.48678628E+04  -0.78504077E+04   0.25613965E+04   0.48678628E+04
  -0.78504077E+04   0.28813965E+04
   0.55283286E+04  -0.78665137E+04   0.25641174E+04   0.55283286E+04
  -0.78665137E+04   0.29056978E+04
   0.61887939E+04  -0.78826187E+04   0.26377966E+04   0.61887939E+04
  -0.78826187E+04   0.30062297E+04
   0.68492612E+04  -0.78987231E+04   0.27030676E+04   0.68492612E+04
  -0.78987231E+04   0.31001196E+04
   0.75097271E+04  -0.79148286E+04   0.27673743E+04   0.75097271E+04
  -0.79148286E+04   0.31922776E+04
   0.81701953E+04  -0.79309331E+04   0.29628481E+04   0.81701953E+04
  -0.79309331E+04   0.34198091E+04
   0.84408682E+04  -0.78831963E+04   0.30088516E+04   0.84408682E+04
  -0.78831963E+04   0.34802808E+04
   0.87115459E+04  -0.78354556E+04   0.30216921E+04   0.87115459E+04
  -0.78354556E+04   0.34987332E+04
   0.93615986E+04  -0.78670151E+04   0.30895417E+04   0.93615986E+04
  -0.78670151E+04   0.35916555E+04
   0.10011652E+05  -0.78985708E+04   0.32334719E+04   0.10011652E+05
  -0.78985708E+04   0.37608130E+04
   0.18478662E+04  -0.71292861E+04   0.29745884E+04   0.18478662E+04
  -0.71292861E+04   0.32945884E+04
   0.23866938E+04  -0.71162646E+04   0.28765020E+04   0.23866938E+04
  -0.71162646E+04   0.31965020E+04
   0.29255215E+04  -0.71032446E+04   0.27907666E+04   0.29255215E+04
  -0.71032446E+04   0.31107666E+04
   0.34643486E+04  -0.70902246E+04   0.27452710E+04   0.34643486E+04
  -0.70902246E+04   0.30652710E+04
   0.40031763E+04  -0.70772041E+04   0.25631563E+04   0.40031763E+04
  -0.70772041E+04   0.28831477E+04
   0.47156411E+04  -0.70952017E+04   0.25557314E+04   0.47156411E+04
  -0.70952017E+04   0.28807024E+04
   0.54281055E+04  -0.71131997E+04   0.25661111E+04   0.54281055E+04
  -0.71131997E+04   0.29174458E+04
   0.61405703E+04  -0.71311948E+04   0.26078606E+04   0.61405703E+04
  -0.71311948E+04   0.29874265E+04
   0.68530356E+04  -0.71491919E+04   0.26846863E+04   0.68530356E+04
  -0.71491919E+04   0.30927847E+04
   0.75655005E+04  -0.71671890E+04   0.27569524E+04   0.75655005E+04
  -0.71671890E+04   0.31936899E+04
   0.82779678E+04  -0.71851860E+04   0.29245427E+04   0.82779678E+04
  -0.71851860E+04   0.33925044E+04
   0.85986953E+04  -0.71543774E+04   0.30102878E+04   0.85986953E+04
  -0.71543774E+04   0.34925591E+04
   0.89194268E+04  -0.71235664E+04   0.30215315E+04   0.89194268E+04
  -0.71235664E+04   0.35127642E+04
   0.95085020E+04  -0.71496411E+04   0.30742048E+04   0.95085020E+04
  -0.71496411E+04   0.35874749E+04
   0.10097581E+05  -0.71757134E+04   0.32142827E+04   0.10097581E+05
  -0.71757134E+04   0.37501787E+04
   0.16616516E+04  -0.63971431E+04   0.30239517E+04   0.16616516E+04
  -0.63971431E+04   0.33439517E+04
   0.21654663E+04  -0.63853589E+04   0.28976870E+04   0.21654663E+04
  -0.63853589E+04   0.32176870E+04
   0.26692810E+04  -0.63735781E+04   0.27989456E+04   0.26692810E+04
  -0.63735781E+04   0.31189456E+04
   0.31730957E+04  -0.63617944E+04   0.27584382E+04   0.31730957E+04
  -0.63617944E+04   0.30784382E+04
   0.36769099E+04  -0.63500117E+04   0.25995776E+04   0.36769099E+04
  -0.63500117E+04   0.29195718E+04
   0.44764600E+04  -0.63675200E+04   0.25526755E+04   0.44764600E+04
  -0.63675200E+04   0.28797815E+04
   0.52760093E+04  -0.63850283E+04   0.25715344E+04   0.52760093E+04
  -0.63850283E+04   0.29274126E+04
   0.60755591E+04  -0.64025342E+04   0.25940132E+04   0.60755591E+04
  -0.64025342E+04   0.29802246E+04
   0.68751094E+04  -0.64200435E+04   0.26814487E+04   0.68751094E+04
  -0.64200435E+04   0.30991152E+04
   0.76746587E+04  -0.64375518E+04   0.27668511E+04   0.76746587E+04
  -0.64375518E+04   0.32161470E+04
   0.84742119E+04  -0.64550596E+04   0.30049536E+04   0.84742119E+04
  -0.64550596E+04   0.34905093E+04
   0.88115293E+04  -0.64366187E+04   0.30139377E+04   0.88115293E+04
  -0.64366187E+04   0.35068721E+04
   0.91488506E+04  -0.64181733E+04   0.30277747E+04   0.91488506E+04
  -0.64181733E+04   0.35332571E+04
   0.96661758E+04  -0.64355171E+04   0.30892708E+04   0.96661758E+04
  -0.64355171E+04   0.36129539E+04
   0.10183509E+05  -0.64528560E+04   0.32200667E+04   0.10183509E+05
  -0.64528560E+04   0.37602129E+04
   0.14754374E+04  -0.56649995E+04   0.30742808E+04   0.14754374E+04
  -0.56649995E+04   0.33942808E+04
   0.19693508E+04  -0.56466729E+04   0.29138008E+04   0.19693508E+04
  -0.56466729E+04   0.32338008E+04
   0.24632639E+04  -0.56283496E+04   0.28117554E+04   0.24632639E+04
  -0.56283496E+04   0.31317554E+04
   0.29571768E+04  -0.56100225E+04   0.27724260E+04   0.29571768E+04
  -0.56100225E+04   0.30924260E+04
   0.34510898E+04  -0.55916963E+04   0.26539705E+04   0.34510898E+04
  -0.55916963E+04   0.29739705E+04
   0.43317524E+04  -0.56171001E+04   0.25746763E+04   0.43317524E+04
  -0.56171001E+04   0.29024194E+04
   0.52124146E+04  -0.56425020E+04   0.25687498E+04   0.52124146E+04
  -0.56425020E+04   0.29292141E+04
   0.60930762E+04  -0.56679048E+04   0.26087112E+04   0.60930762E+04
  -0.56679048E+04   0.30024668E+04
   0.69737397E+04  -0.56933066E+04   0.27043843E+04   0.69737397E+04
  -0.56933066E+04   0.31319429E+04
   0.78544014E+04  -0.57187095E+04   0.27876477E+04   0.78544014E+04
  -0.57187095E+04   0.32506362E+04
   0.87350674E+04  -0.57441123E+04   0.30086990E+04   0.87350674E+04
  -0.57441123E+04   0.35075706E+04
   0.90657793E+04  -0.57315347E+04   0.30206348E+04   0.90657793E+04
  -0.57315347E+04   0.35297402E+04
   0.93964961E+04  -0.57189531E+04   0.30469060E+04   0.93964961E+04
  -0.57189531E+04   0.35685686E+04
   0.98329639E+04  -0.57244775E+04   0.31323088E+04   0.98329639E+04
  -0.57244775E+04   0.36690481E+04
   0.10269438E+05  -0.57299985E+04   0.32408169E+04   0.10269438E+05
  -0.57299985E+04   0.37841016E+04
   0.12892231E+04  -0.49328564E+04   0.31488950E+04   0.12892231E+04
  -0.49328564E+04   0.34688950E+04
   0.17523488E+04  -0.49152842E+04   0.30211289E+04   0.17523488E+04
  -0.49152842E+04   0.33411289E+04
   0.22154744E+04  -0.48977134E+04   0.28869038E+04   0.22154744E+04
  -0.48977134E+04   0.32069038E+04
   0.26786001E+04  -0.48801406E+04   0.27942192E+04   0.26786001E+04
  -0.48801406E+04   0.31142192E+04
   0.31417251E+04  -0.48625679E+04   0.27086301E+04   0.31417251E+04
  -0.48625679E+04   0.30286299E+04
   0.41114580E+04  -0.48896670E+04   0.26254988E+04   0.41114580E+04
  -0.48896670E+04   0.29506499E+04
   0.50811919E+04  -0.49167642E+04   0.25915615E+04   0.50811919E+04
  -0.49167642E+04   0.29527896E+04
   0.60509238E+04  -0.49438623E+04   0.26394592E+04   0.60509238E+04
  -0.49438623E+04   0.30371687E+04
   0.70206577E+04  -0.49709604E+04   0.27353469E+04   0.70206577E+04
  -0.49709604E+04   0.31696274E+04
   0.79903906E+04  -0.49980581E+04   0.28216304E+04   0.79903906E+04
  -0.49980581E+04   0.32922434E+04
   0.89601279E+04  -0.50251563E+04   0.30175127E+04   0.89601279E+04
  -0.50251563E+04   0.35328311E+04
   0.92925713E+04  -0.50196841E+04   0.30467810E+04   0.92925713E+04
  -0.50196841E+04   0.35716118E+04
   0.96250225E+04  -0.50142100E+04   0.31080039E+04   0.96250225E+04
  -0.50142100E+04   0.36445759E+04
   0.99901914E+04  -0.50106777E+04   0.31932529E+04   0.99901914E+04
  -0.50106777E+04   0.37355234E+04
   0.10355366E+05  -0.50071411E+04   0.32765332E+04   0.10355366E+05
  -0.50071411E+04   0.38228425E+04
   0.11030085E+04  -0.42007129E+04   0.32323235E+04   0.11030085E+04
  -0.42007129E+04   0.35523235E+04
   0.15428656E+04  -0.41797852E+04   0.31277031E+04   0.15428656E+04
  -0.41797852E+04   0.34477031E+04
   0.19827223E+04  -0.41588564E+04   0.30131106E+04   0.19827223E+04
  -0.41588564E+04   0.33331106E+04
   0.24225796E+04  -0.41379268E+04   0.28957412E+04   0.24225796E+04
  -0.41379268E+04   0.32157412E+04
   0.28624358E+04  -0.41169980E+04   0.27902993E+04   0.28624358E+04
  -0.41169980E+04   0.31102983E+04
   0.39043770E+04  -0.41447666E+04   0.26648855E+04   0.39043770E+04
  -0.41447666E+04   0.29955483E+04
   0.49463184E+04  -0.41725352E+04   0.26463538E+04   0.49463184E+04
  -0.41725352E+04   0.30096392E+04
   0.59882588E+04  -0.42003027E+04   0.26798701E+04   0.59882588E+04
  -0.42003027E+04   0.30817781E+04
   0.70301987E+04  -0.42280708E+04   0.27708472E+04   0.70301987E+04
  -0.42280708E+04   0.32109314E+04
   0.80721401E+04  -0.42558389E+04   0.28676506E+04   0.80721401E+04
  -0.42558389E+04   0.33464084E+04
   0.91140859E+04  -0.42836074E+04   0.30509751E+04   0.91140859E+04
  -0.42836074E+04   0.35781238E+04
   0.94512451E+04  -0.42871289E+04   0.31067109E+04   0.94512451E+04
  -0.42871289E+04   0.36437412E+04
   0.97884121E+04  -0.42906479E+04   0.31774167E+04   0.97884121E+04
  -0.42906479E+04   0.37196714E+04
   0.10114850E+05  -0.42874688E+04   0.32497407E+04   0.10114850E+05
  -0.42874688E+04   0.37956892E+04
   0.10441295E+05  -0.42842842E+04   0.33213750E+04   0.10441295E+05
  -0.42842842E+04   0.38708176E+04
   0.91679425E+03  -0.34685701E+04   0.33205442E+04   0.91679425E+03
  -0.34685701E+04   0.36405442E+04
   0.13209406E+04  -0.34491389E+04   0.32261792E+04   0.13209406E+04
  -0.34491389E+04   0.35461792E+04
   0.17250863E+04  -0.34297080E+04   0.31367029E+04   0.17250863E+04
  -0.34297080E+04   0.34567029E+04
   0.21292322E+04  -0.34102754E+04   0.30312932E+04   0.21292322E+04
  -0.34102754E+04   0.33512932E+04
   0.25333774E+04  -0.33908438E+04   0.28506023E+04   0.25333774E+04
  -0.33908438E+04   0.31705803E+04
   0.36688193E+04  -0.34194863E+04   0.27476746E+04   0.36688193E+04
  -0.34194863E+04   0.30827168E+04
   0.48042607E+04  -0.34481292E+04   0.26982170E+04   0.48042607E+04
  -0.34481292E+04   0.30675610E+04
   0.59397026E+04  -0.34767703E+04   0.27312170E+04   0.59397026E+04
  -0.34767703E+04   0.31399341E+04
   0.70751436E+04  -0.35054124E+04   0.28170508E+04   0.70751436E+04
  -0.35054124E+04   0.32654924E+04
   0.82105840E+04  -0.35340544E+04   0.29310466E+04   0.82105840E+04
  -0.35340544E+04   0.34227671E+04
   0.93460322E+04  -0.35626973E+04   0.31299771E+04   0.93460322E+04
  -0.35626973E+04   0.36687166E+04
   0.96489111E+04  -0.35648926E+04   0.31819739E+04   0.96489111E+04
  -0.35648926E+04   0.37238542E+04
   0.99518008E+04  -0.35670859E+04   0.32454138E+04   0.99518008E+04
  -0.35670859E+04   0.37910186E+04
   0.10239509E+05  -0.35642588E+04   0.33015791E+04   0.10239509E+05
  -0.35642588E+04   0.38506802E+04
   0.10527225E+05  -0.35614272E+04   0.33495981E+04   0.10527225E+05
  -0.35614272E+04   0.38995981E+04
   0.73057983E+03  -0.27364272E+04   0.34274751E+04   0.73057983E+03
  -0.27364272E+04   0.37474751E+04
   0.11191240E+04  -0.27112539E+04   0.33422310E+04   0.11191240E+04
  -0.27112539E+04   0.36622310E+04
   0.15076680E+04  -0.26860796E+04   0.32601116E+04   0.15076680E+04
  -0.26860796E+04   0.35801116E+04
   0.18962118E+04  -0.26609048E+04   0.31769678E+04   0.18962118E+04
  -0.26609048E+04   0.34969678E+04
   0.22847551E+04  -0.26357297E+04   0.29182612E+04   0.22847551E+04
  -0.26357297E+04   0.32382612E+04
   0.34963972E+04  -0.26688730E+04   0.28311418E+04   0.34963972E+04
  -0.26688730E+04   0.31678579E+04
   0.47080381E+04  -0.27020149E+04   0.27856621E+04   0.47080381E+04
  -0.27020149E+04   0.31596130E+04
   0.59196802E+04  -0.27351572E+04   0.28019939E+04   0.59196802E+04
  -0.27351572E+04   0.32178872E+04
   0.71313213E+04  -0.27682996E+04   0.28953105E+04   0.71313213E+04
  -0.27682996E+04   0.33533293E+04
   0.83429629E+04  -0.28014414E+04   0.30066377E+04   0.83429629E+04
  -0.28014414E+04   0.35123640E+04
   0.95546113E+04  -0.28345840E+04   0.32391812E+04   0.95546113E+04
  -0.28345840E+04   0.37819985E+04
   0.98285400E+04  -0.28376831E+04   0.32726499E+04   0.98285400E+04
  -0.28376831E+04   0.38183093E+04
   0.10102481E+05  -0.28407798E+04   0.33104990E+04   0.10102481E+05
  -0.28407798E+04   0.38599160E+04
   0.10357811E+05  -0.28396770E+04   0.33365002E+04   0.10357811E+05
  -0.28396770E+04   0.38865002E+04
   0.10613152E+05  -0.28385701E+04   0.33595146E+04   0.10613152E+05
  -0.28385701E+04   0.39095146E+04
   0.54436578E+03  -0.20042843E+04   0.34901025E+04   0.54436578E+03
  -0.20042843E+04   0.38101025E+04
   0.88482990E+03  -0.19880630E+04   0.34645688E+04   0.88482990E+03
  -0.19880630E+04   0.37845688E+04
   0.12252938E+04  -0.19718413E+04   0.34007888E+04   0.12252938E+04
  -0.19718413E+04   0.37207888E+04
   0.15657574E+04  -0.19556180E+04   0.33182434E+04   0.15657574E+04
  -0.19556180E+04   0.36382434E+04
   0.19062208E+04  -0.19393951E+04   0.30143398E+04   0.19062208E+04
  -0.19393951E+04   0.33343398E+04
   0.32172861E+04  -0.19677140E+04   0.29313970E+04   0.32172861E+04
  -0.19677140E+04   0.32647231E+04
   0.45283511E+04  -0.19960323E+04   0.28841980E+04   0.45283511E+04
  -0.19960323E+04   0.32602031E+04
   0.58394150E+04  -0.20243496E+04   0.29028806E+04   0.58394150E+04
  -0.20243496E+04   0.33228428E+04
   0.71504800E+04  -0.20526677E+04   0.29816743E+04   0.71504800E+04
  -0.20526677E+04   0.34489426E+04
   0.84615449E+04  -0.20809856E+04   0.30953777E+04   0.84615449E+04
  -0.20809856E+04   0.36130742E+04
   0.97726162E+04  -0.21093037E+04   0.33181414E+04   0.97726162E+04
  -0.21093037E+04   0.38664937E+04
   0.10012493E+05  -0.21118052E+04   0.33347737E+04   0.10012493E+05
  -0.21118052E+04   0.38842168E+04
   0.10252383E+05  -0.21143049E+04   0.33573645E+04   0.10252383E+05
  -0.21143049E+04   0.39073645E+04
   0.10475726E+05  -0.21150110E+04   0.33779978E+04   0.10475726E+05
  -0.21150110E+04   0.39279978E+04
   0.10699081E+05  -0.21157134E+04   0.33996094E+04   0.10699081E+05
  -0.21157134E+04   0.39496094E+04
   0.35815131E+03  -0.12721410E+04   0.34992332E+04   0.35815131E+03
  -0.12721410E+04   0.38192332E+04
   0.64708008E+03  -0.12654384E+04   0.34974834E+04   0.64708008E+03
  -0.12654384E+04   0.38174834E+04
   0.93600848E+03  -0.12587349E+04   0.34913330E+04   0.93600848E+03
  -0.12587349E+04   0.38113330E+04
   0.12249370E+04  -0.12520303E+04   0.34728909E+04   0.12249370E+04
  -0.12520303E+04   0.37928909E+04
   0.15138646E+04  -0.12453257E+04   0.31254517E+04   0.15138646E+04
  -0.12453257E+04   0.34454517E+04
   0.29281387E+04  -0.12688809E+04   0.30334768E+04   0.29281387E+04
  -0.12688809E+04   0.33623125E+04
   0.43424116E+04  -0.12924351E+04   0.29932075E+04   0.43424116E+04
  -0.12924351E+04   0.33703518E+04
   0.57566855E+04  -0.13159884E+04   0.30102473E+04   0.57566855E+04
  -0.13159884E+04   0.34353782E+04
   0.71709575E+04  -0.13395425E+04   0.30753416E+04   0.71709575E+04
  -0.13395425E+04   0.35527371E+04
   0.85852324E+04  -0.13630961E+04   0.31639011E+04   0.85852324E+04
  -0.13630961E+04   0.36911145E+04
   0.99995117E+04  -0.13866508E+04   0.33865750E+04   0.99995117E+04
  -0.13866508E+04   0.39365566E+04
   0.10202622E+05  -0.13876040E+04   0.33988203E+04   0.10202622E+05
  -0.13876040E+04   0.39488203E+04
   0.10405746E+05  -0.13885558E+04   0.34161184E+04   0.10405746E+05
  -0.13885558E+04   0.39661184E+04
   0.10595371E+05  -0.13907076E+04   0.34307769E+04   0.10595371E+05
  -0.13907076E+04   0.39807769E+04
   0.10785011E+05  -0.13928555E+04   0.34446069E+04   0.10785011E+05
  -0.13928555E+04   0.39946069E+04
   0.17193710E+03  -0.53999829E+03   0.34999509E+04   0.17193710E+03
  -0.53999829E+03   0.38199509E+04
   0.40920920E+03  -0.54288306E+03   0.34998572E+04   0.40920920E+03
  -0.54288306E+03   0.38198572E+04
   0.64648090E+03  -0.54576630E+03   0.34995876E+04   0.64648090E+03
  -0.54576630E+03   0.38195876E+04
   0.88375262E+03  -0.54864862E+03   0.34988145E+04   0.88375262E+03
  -0.54864862E+03   0.38188145E+04
   0.11210236E+04  -0.55153082E+03   0.32113335E+04   0.11210236E+04
  -0.55153082E+03   0.35313335E+04
   0.26375376E+04  -0.56995880E+03   0.31361479E+04   0.26375376E+04
  -0.56995880E+03   0.34616726E+04
   0.41540513E+04  -0.58838556E+03   0.31033354E+04   0.41540513E+04
  -0.58838556E+03   0.34811262E+04
   0.56705645E+04  -0.60681171E+03   0.31123755E+04   0.56705645E+04
  -0.60681171E+03   0.35434077E+04
   0.71870776E+04  -0.62523859E+03   0.31656890E+04   0.71870776E+04
  -0.62523859E+03   0.36515300E+04
   0.87035908E+04  -0.64366498E+03   0.32402590E+04   0.87035908E+04
  -0.64366498E+03   0.37760071E+04
   0.10220112E+05  -0.66209216E+03   0.34455972E+04   0.10220112E+05
  -0.66209216E+03   0.39955972E+04
   0.10395745E+05  -0.66422607E+03   0.34524434E+04   0.10395745E+05
  -0.66422607E+03   0.40024434E+04
   0.10571394E+05  -0.66635864E+03   0.34626406E+04   0.10571394E+05
  -0.66635864E+03   0.40126406E+04
   0.10721158E+05  -0.66818005E+03   0.34695435E+04   0.10721158E+05
  -0.66818005E+03   0.40195435E+04
   0.10870938E+05  -0.66999756E+03   0.34753779E+04   0.10870938E+05
  -0.66999756E+03   0.40253779E+04
/
ZCORN
   0.34318538E+04   0.33651938E+04   0.33651938E+04   0.33158789E+04
   0.33158789E+04   0.32487073E+04   0.32487073E+04   0.32065625E+04
   0.29412827E+04   0.29530381E+04   0.29530381E+04   0.29586743E+04
   0.29586743E+04   0.29740752E+04   0.29740752E+04   0.29894846E+04
   0.29894846E+04   0.30092332E+04   0.30092332E+04   0.30194424E+04
   0.30700129E+04   0.30852356E+04   0.30852356E+04   0.31039519E+04
   0.33780630E+04   0.34304207E+04   0.34304207E+04   0.34650330E+04
   0.33071899E+04   0.32269309E+04   0.32269309E+04   0.31345508E+04
   0.31345508E+04   0.30539558E+04   0.30539558E+04   0.29931960E+04
   0.28094272E+04   0.28269785E+04   0.28269785E+04   0.28380110E+04
   0.28380110E+04   0.28554978E+04   0.28554978E+04   0.28815530E+04
   0.28815530E+04   0.29065366E+04   0.29065366E+04   0.29464436E+04
   0.30486731E+04   0.30597754E+04   0.30597754E+04   0.30721536E+04
   0.32799060E+04   0.33405491E+04   0.33405491E+04   0.33970920E+04
   0.33071899E+04   0.32269309E+04   0.32269309E+04   0.31345508E+04
   0.31345508E+04   0.30539558E+04   0.30539558E+04   0.29931960E+04
   0.28094272E+04   0.28269785E+04   0.28269785E+04   0.28380110E+04
   0.28380110E+04   0.28554978E+04   0.28554978E+04   0.28815530E+04
   0.28815530E+04   0.29065366E+04   0.29065366E+04   0.29464436E+04
   0.30486731E+04   0.30597754E+04   0.30597754E+04   0.30721536E+04
   0.32799060E+04   0.33405491E+04   0.33405491E+04   0.33970920E+04
   0.31855901E+04   0.30859448E+04   0.30859448E+04   0.29714250E+04
   0.29714250E+04   0.28732664E+04   0.28732664E+04   0.28069797E+04
   0.27035737E+04   0.27275608E+04   0.27275608E+04   0.27437268E+04
   0.27437268E+04   0.27690896E+04   0.27690896E+04   0.27914294E+04
   0.27914294E+04   0.28471199E+04   0.28471199E+04   0.28843813E+04
   0.30173618E+04   0.30281807E+04   0.30281807E+04   0.30411670E+04
   0.31619749E+04   0.32481384E+04   0.32481384E+04   0.33280771E+04
   0.31855901E+04   0.30859448E+04   0.30859448E+04   0.29714250E+04
   0.29714250E+04   0.28732664E+04   0.28732664E+04   0.28069797E+04
   0.27035737E+04   0.27275608E+04   0.27275608E+04   0.27437268E+04
   0.27437268E+04   0.27690896E+04   0.27690896E+04   0.27914294E+04
   0.27914294E+04   0.28471199E+04   0.28471199E+04   0.28843813E+04
   0.30173618E+04   0.30281807E+04   0.30281807E+04   0.30411670E+04
   0.31619749E+04   0.32481384E+04   0.32481384E+04   0.33280771E+04
   0.30898696E+04   0.29574873E+04   0.29574873E+04   0.28708794E+04
   0.28708794E+04   0.27980378E+04   0.27980378E+04   0.27468774E+04
   0.26164727E+04   0.26341221E+04   0.26341221E+04   0.26485039E+04
   0.26485039E+04   0.26865146E+04   0.26865146E+04   0.27392288E+04
   0.27392288E+04   0.27871663E+04   0.27871663E+04   0.28262341E+04
   0.29870938E+04   0.29968752E+04   0.29968752E+04   0.30064861E+04
   0.30624968E+04   0.31556448E+04   0.31556448E+04   0.32778843E+04
   0.30898696E+04   0.29574873E+04   0.29574873E+04   0.28708794E+04
   0.28708794E+04   0.27980378E+04   0.27980378E+04   0.27468774E+04
   0.26164727E+04   0.26341221E+04   0.26341221E+04   0.26485039E+04
   0.26485039E+04   0.26865146E+04   0.26865146E+04   0.27392288E+04
   0.27392288E+04   0.27871663E+04   0.27871663E+04   0.28262341E+04
   0.29870938E+04   0.29968752E+04   0.29968752E+04   0.30064861E+04
   0.30624968E+04   0.31556448E+04   0.31556448E+04   0.32778843E+04
   0.30295347E+04   0.28968701E+04   0.28968701E+04   0.28023848E+04
   0.28023848E+04   0.27755752E+04   0.27755752E+04   0.27204021E+04
   0.25749341E+04   0.25613965E+04   0.25613965E+04   0.25641174E+04
   0.25641174E+04   0.26377966E+04   0.26377966E+04   0.27030676E+04
   0.27030676E+04   0.27673743E+04   0.27673743E+04   0.28164302E+04
   0.29628481E+04   0.29731321E+04   0.29731321E+04   0.29771069E+04
   0.30216921E+04   0.30895417E+04   0.30895417E+04   0.32334719E+04
   0.30295347E+04   0.28968701E+04   0.28968701E+04   0.28023848E+04
   0.28023848E+04   0.27755752E+04   0.27755752E+04   0.27204021E+04
   0.25749341E+04   0.25613965E+04   0.25613965E+04   0.25641174E+04
   0.25641174E+04   0.26377966E+04   0.26377966E+04   0.27030676E+04
   0.27030676E+04   0.27673743E+04   0.27673743E+04   0.28164302E+04
   0.29628481E+04   0.29731321E+04   0.30088516E+04   0.30216921E+04
   0.30216921E+04   0.30895417E+04   0.30895417E+04   0.32334719E+04
   0.29745884E+04   0.28765020E+04   0.28765020E+04   0.27907666E+04
   0.27907666E+04   0.27452710E+04   0.27452710E+04   0.26926072E+04
   0.25631563E+04   0.25557314E+04   0.25557314E+04   0.25661111E+04
   0.25661111E+04   0.26078606E+04   0.26078606E+04   0.26846863E+04
   0.26846863E+04   0.27569524E+04   0.27569524E+04   0.28158608E+04
   0.29245427E+04   0.29380566E+04   0.30102878E+04   0.30215315E+04
   0.30215315E+04   0.30742048E+04   0.30742048E+04   0.32142827E+04
   0.29745884E+04   0.28765020E+04   0.28765020E+04   0.27907666E+04
   0.27907666E+04   0.27452710E+04   0.27452710E+04   0.26926072E+04
   0.25631563E+04   0.25557314E+04   0.25557314E+04   0.25661111E+04
   0.25661111E+04   0.26078606E+04   0.26078606E+04   0.26846863E+04
   0.26846863E+04   0.27569524E+04   0.27569524E+04   0.28158608E+04
   0.29245427E+04   0.29380566E+04   0.30102878E+04   0.30215315E+04
   0.30215315E+04   0.30742048E+04   0.30742048E+04   0.32142827E+04
   0.30239517E+04   0.28976870E+04   0.28976870E+04   0.27989456E+04
   0.27989456E+04   0.27584382E+04   0.27584382E+04   0.27025752E+04
   0.25995776E+04   0.25526755E+04   0.25526755E+04   0.25715344E+04
   0.25715344E+04   0.25940132E+04   0.25940132E+04   0.26814487E+04
   0.26814487E+04   0.27668511E+04   0.27668511E+04   0.28438838E+04
   0.29009163E+04   0.28957617E+04   0.30139377E+04   0.30277747E+04
   0.30277747E+04   0.30892708E+04   0.30892708E+04   0.32200667E+04
   0.30239517E+04   0.28976870E+04   0.28976870E+04   0.27989456E+04
   0.27989456E+04   0.27584382E+04   0.27584382E+04   0.27025752E+04
   0.25995776E+04   0.25526755E+04   0.25526755E+04   0.25715344E+04
   0.25715344E+04   0.25940132E+04   0.25940132E+04   0.26814487E+04
   0.26814487E+04   0.27668511E+04   0.27668511E+04   0.28438838E+04
   0.30049536E+04   0.30139377E+04   0.30139377E+04   0.30277747E+04
   0.30277747E+04   0.30892708E+04   0.30892708E+04   0.32200667E+04
   0.30742808E+04   0.29138008E+04   0.29138008E+04   0.28117554E+04